M 0.10000 0 (258.00, 500.00, 0.00), (250.00, 500.00), 1000.00
M 0.10000 1 (400.00, 500.00, 0.00), (450.00, 500.00), 1000.00
s 0.200000000 _1_ AGT  --- 0 tcp 40 [0 0 0 0] ------- [1:0 0:0 32 0] [0 0] 0 0
r 0.200000000 _1_ RTR  --- 0 tcp 40 [0 0 0 0] ------- [1:0 0:0 32 0] [0 0] 0 0
s 0.200000000 _1_ RTR  --- 0 AODV 48 [0 0 0 0] ------- [1:255 -1:255 30 0] [0x2 1 1 [0 0] [1 4]] (REQUEST)
s 0.200115000 _1_ MAC  --- 0 AODV 106 [0 ffffffff 1 800] ------- [1:255 -1:255 30 0] [0x2 1 1 [0 0] [1 4]] (REQUEST)
r 0.200963667 _0_ MAC  --- 0 AODV 48 [0 ffffffff 1 800] ------- [1:255 -1:255 30 0] [0x2 1 1 [0 0] [1 4]] (REQUEST)
r 0.200988667 _0_ RTR  --- 0 AODV 48 [0 ffffffff 1 800] ------- [1:255 -1:255 30 0] [0x2 1 1 [0 0] [1 4]] (REQUEST)
s 0.200988667 _0_ RTR  --- 0 AODV 44 [0 0 0 0] ------- [0:255 1:255 30 1] [0x4 1 [0 4] 10.000000] (REPLY)
s 0.201343667 _0_ MAC  --- 0 ARP 86 [0 ffffffff 0 806] ------- [REQUEST 0/0 0/1]
r 0.202032333 _1_ MAC  --- 0 ARP 28 [0 ffffffff 0 806] ------- [REQUEST 0/0 0/1]
s 0.202322333 _1_ MAC  --- 0 RTS 44 [347 0 1 0] 
s 0.203702333 _1_ MAC  --- 0 RTS 44 [347 0 1 0] 
r 0.204055000 _0_ MAC  --- 0 RTS 44 [347 0 1 0] 
s 0.204065000 _0_ MAC  --- 0 CTS 38 [20d 1 0 0] 
r 0.204369667 _1_ MAC  --- 0 CTS 38 [20d 1 0 0] 
s 0.204379667 _1_ MAC  --- 0 ARP 86 [13a 0 1 806] ------- [REPLY 1/1 0/0]
r 0.204581519 _0_ MAC  --- 0 ARP 28 [13a 0 1 806] ------- [REPLY 1/1 0/0]
s 0.204591519 _0_ MAC  --- 0 ACK 38 [0 1 0 0] 
r 0.204896185 _1_ MAC  --- 0 ACK 38 [0 1 0 0] 
s 0.205105519 _0_ MAC  --- 0 RTS 44 [34a 1 0 0] 
r 0.205458185 _1_ MAC  --- 0 RTS 44 [34a 1 0 0] 
s 0.205468185 _1_ MAC  --- 0 CTS 38 [210 0 0 0] 
r 0.205772852 _0_ MAC  --- 0 CTS 38 [210 0 0 0] 
s 0.205782852 _0_ MAC  --- 0 AODV 102 [13a 1 0 800] ------- [0:255 1:255 30 1] [0x4 1 [0 4] 10.000000] (REPLY)
r 0.205987074 _1_ MAC  --- 0 AODV 44 [13a 1 0 800] ------- [0:255 1:255 30 1] [0x4 1 [0 4] 10.000000] (REPLY)
s 0.205997074 _1_ MAC  --- 0 ACK 38 [0 0 0 0] 
r 0.206012074 _1_ RTR  --- 0 AODV 44 [13a 1 0 800] ------- [0:255 1:255 30 1] [0x4 1 [0 4] 10.000000] (REPLY)
s 0.206012074 _1_ RTR  --- 0 tcp 40 [0 0 0 0] ------- [1:0 0:0 30 0] [0 0] 0 0
r 0.206301741 _0_ MAC  --- 0 ACK 38 [0 0 0 0] 
s 0.206411074 _1_ MAC  --- 0 RTS 44 [349 0 1 0] 
r 0.206763741 _0_ MAC  --- 0 RTS 44 [349 0 1 0] 
s 0.206773741 _0_ MAC  --- 0 CTS 38 [20f 1 0 0] 
r 0.207078407 _1_ MAC  --- 0 CTS 38 [20f 1 0 0] 
s 0.207088407 _1_ MAC  --- 0 tcp 98 [13a 0 1 800] ------- [1:0 0:0 30 0] [0 0] 0 0
r 0.207292037 _0_ MAC  --- 0 tcp 40 [13a 0 1 800] ------- [1:0 0:0 30 0] [0 0] 1 0
s 0.207302037 _0_ MAC  --- 0 ACK 38 [0 1 0 0] 
r 0.207317037 _0_ AGT  --- 0 tcp 40 [13a 0 1 800] ------- [1:0 0:0 30 0] [0 0] 1 0
s 0.207317037 _0_ AGT  --- 1 ack 40 [0 0 0 0] ------- [0:0 1:0 32 0] [0 0] 0 0
r 0.207317037 _0_ RTR  --- 1 ack 40 [0 0 0 0] ------- [0:0 1:0 32 0] [0 0] 0 0
s 0.207317037 _0_ RTR  --- 1 ack 40 [0 0 0 0] ------- [0:0 1:0 30 1] [0 0] 0 0
s 0.207836037 _0_ MAC  --- 0 RTS 44 [349 1 0 0] 
r 0.208188704 _1_ MAC  --- 0 RTS 44 [349 1 0 0] 
s 0.208198704 _1_ MAC  --- 0 CTS 38 [20f 0 0 0] 
r 0.208503370 _0_ MAC  --- 0 CTS 38 [20f 0 0 0] 
s 0.208513370 _0_ MAC  --- 1 ack 98 [13a 1 0 800] ------- [0:0 1:0 30 1] [0 0] 0 0
s 0.210124333 _0_ MAC  --- 0 RTS 44 [349 1 0 0] 
r 0.210477000 _1_ MAC  --- 0 RTS 44 [349 1 0 0] 
s 0.210487000 _1_ MAC  --- 0 CTS 38 [20f 0 0 0] 
r 0.210791667 _0_ MAC  --- 0 CTS 38 [20f 0 0 0] 
s 0.210801667 _0_ MAC  --- 1 ack 98 [13a 1 0 800] ------- [0:0 1:0 30 1] [0 0] 0 0
s 0.211679296 _1_ MAC  --- 0 RTS 44 [349 0 1 0] 
s 0.212939296 _1_ MAC  --- 0 RTS 44 [349 0 1 0] 
r 0.213291963 _0_ MAC  --- 0 RTS 44 [349 0 1 0] 
s 0.213301963 _0_ MAC  --- 0 CTS 38 [20f 1 0 0] 
r 0.213606630 _1_ MAC  --- 0 CTS 38 [20f 1 0 0] 
s 0.213616630 _1_ MAC  --- 0 tcp 98 [13a 0 1 800] ------- [1:0 0:0 30 0] [0 0] 0 0
D 0.213820259 _0_ MAC  DUP 0 tcp 40 [13a 0 1 800] ------- [1:0 0:0 30 0] [0 0] 1 0
s 0.213830259 _0_ MAC  --- 0 ACK 38 [0 1 0 0] 
r 0.214134926 _1_ MAC  --- 0 ACK 38 [0 1 0 0] 
s 0.214304259 _0_ MAC  --- 0 RTS 44 [349 1 0 0] 
r 0.214656926 _1_ MAC  --- 0 RTS 44 [349 1 0 0] 
s 0.214666926 _1_ MAC  --- 0 CTS 38 [20f 0 0 0] 
r 0.214971593 _0_ MAC  --- 0 CTS 38 [20f 0 0 0] 
s 0.214981593 _0_ MAC  --- 1 ack 98 [13a 1 0 800] ------- [0:0 1:0 30 1] [0 0] 0 0
s 0.218972556 _0_ MAC  --- 0 RTS 44 [349 1 0 0] 
r 0.219325222 _1_ MAC  --- 0 RTS 44 [349 1 0 0] 
s 0.219335222 _1_ MAC  --- 0 CTS 38 [20f 0 0 0] 
s 0.225493889 _0_ MAC  --- 0 RTS 44 [349 1 0 0] 
r 0.225846556 _1_ MAC  --- 0 RTS 44 [349 1 0 0] 
s 0.225856556 _1_ MAC  --- 0 CTS 38 [20f 0 0 0] 
r 0.226161222 _0_ MAC  --- 0 CTS 38 [20f 0 0 0] 
s 0.226171222 _0_ MAC  --- 1 ack 98 [13a 1 0 800] ------- [0:0 1:0 30 1] [0 0] 0 0
r 0.226374852 _1_ MAC  --- 1 ack 40 [13a 1 0 800] ------- [0:0 1:0 30 1] [0 0] 1 0
s 0.226384852 _1_ MAC  --- 0 ACK 38 [0 0 0 0] 
r 0.226399852 _1_ AGT  --- 1 ack 40 [13a 1 0 800] ------- [0:0 1:0 30 1] [0 0] 1 0
s 0.226399852 _1_ AGT  --- 2 tcp 1040 [0 0 0 0] ------- [1:0 0:0 32 0] [1 0] 0 0
r 0.226399852 _1_ RTR  --- 2 tcp 1040 [0 0 0 0] ------- [1:0 0:0 32 0] [1 0] 0 0
s 0.226399852 _1_ AGT  --- 3 tcp 1040 [0 0 0 0] ------- [1:0 0:0 32 0] [2 0] 0 0
r 0.226399852 _1_ RTR  --- 3 tcp 1040 [0 0 0 0] ------- [1:0 0:0 32 0] [2 0] 0 0
s 0.226399852 _1_ RTR  --- 2 tcp 1040 [0 0 0 0] ------- [1:0 0:0 30 0] [1 0] 0 0
s 0.226399852 _1_ RTR  --- 3 tcp 1040 [0 0 0 0] ------- [1:0 0:0 30 0] [2 0] 0 0
r 0.226689519 _0_ MAC  --- 0 ACK 38 [0 0 0 0] 
s 0.226978852 _1_ MAC  --- 0 RTS 44 [3dd 0 1 0] 
r 0.227331519 _0_ MAC  --- 0 RTS 44 [3dd 0 1 0] 
s 0.227341519 _0_ MAC  --- 0 CTS 38 [2a3 1 0 0] 
r 0.227646185 _1_ MAC  --- 0 CTS 38 [2a3 1 0 0] 
s 0.227656185 _1_ MAC  --- 2 tcp 1098 [13a 0 1 800] ------- [1:0 0:0 30 0] [1 0] 0 0
r 0.228007963 _0_ MAC  --- 2 tcp 1040 [13a 0 1 800] ------- [1:0 0:0 30 0] [1 0] 1 0
s 0.228017963 _0_ MAC  --- 0 ACK 38 [0 1 0 0] 
r 0.228032963 _0_ AGT  --- 2 tcp 1040 [13a 0 1 800] ------- [1:0 0:0 30 0] [1 0] 1 0
s 0.228032963 _0_ AGT  --- 4 ack 40 [0 0 0 0] ------- [0:0 1:0 32 0] [1 0] 0 0
r 0.228032963 _0_ RTR  --- 4 ack 40 [0 0 0 0] ------- [0:0 1:0 32 0] [1 0] 0 0
s 0.228032963 _0_ RTR  --- 4 ack 40 [0 0 0 0] ------- [0:0 1:0 30 1] [1 0] 0 0
s 0.228836630 _1_ MAC  --- 0 RTS 44 [3dd 0 1 0] 
r 0.229189296 _0_ MAC  --- 0 RTS 44 [3dd 0 1 0] 
s 0.229199296 _0_ MAC  --- 0 CTS 38 [2a3 1 0 0] 
r 0.229503963 _1_ MAC  --- 0 CTS 38 [2a3 1 0 0] 
s 0.229513963 _1_ MAC  --- 2 tcp 1098 [13a 0 1 800] ------- [1:0 0:0 30 0] [1 0] 0 0
D 0.229865741 _0_ MAC  DUP 2 tcp 1040 [13a 0 1 800] ------- [1:0 0:0 30 0] [1 0] 1 0
s 0.229875741 _0_ MAC  --- 0 ACK 38 [0 1 0 0] 
r 0.230180407 _1_ MAC  --- 0 ACK 38 [0 1 0 0] 
s 0.230249741 _0_ MAC  --- 0 RTS 44 [349 1 0 0] 
r 0.230602407 _1_ MAC  --- 0 RTS 44 [349 1 0 0] 
s 0.230612407 _1_ MAC  --- 0 CTS 38 [20f 0 0 0] 
r 0.230917074 _0_ MAC  --- 0 CTS 38 [20f 0 0 0] 
s 0.230927074 _0_ MAC  --- 4 ack 98 [13a 1 0 800] ------- [0:0 1:0 30 1] [1 0] 0 0
r 0.231130704 _1_ MAC  --- 4 ack 40 [13a 1 0 800] ------- [0:0 1:0 30 1] [1 0] 1 0
s 0.231140704 _1_ MAC  --- 0 ACK 38 [0 0 0 0] 
r 0.231155704 _1_ AGT  --- 4 ack 40 [13a 1 0 800] ------- [0:0 1:0 30 1] [1 0] 1 0
s 0.231155704 _1_ AGT  --- 5 tcp 1040 [0 0 0 0] ------- [1:0 0:0 32 0] [3 0] 0 0
r 0.231155704 _1_ RTR  --- 5 tcp 1040 [0 0 0 0] ------- [1:0 0:0 32 0] [3 0] 0 0
s 0.231155704 _1_ AGT  --- 6 tcp 1040 [0 0 0 0] ------- [1:0 0:0 32 0] [4 0] 0 0
r 0.231155704 _1_ RTR  --- 6 tcp 1040 [0 0 0 0] ------- [1:0 0:0 32 0] [4 0] 0 0
s 0.231155704 _1_ RTR  --- 5 tcp 1040 [0 0 0 0] ------- [1:0 0:0 30 0] [3 0] 0 0
s 0.231155704 _1_ RTR  --- 6 tcp 1040 [0 0 0 0] ------- [1:0 0:0 30 0] [4 0] 0 0
s 0.231814704 _1_ MAC  --- 0 RTS 44 [3dd 0 1 0] 
r 0.232167370 _0_ MAC  --- 0 RTS 44 [3dd 0 1 0] 
s 0.232177370 _0_ MAC  --- 0 CTS 38 [2a3 1 0 0] 
r 0.232482037 _1_ MAC  --- 0 CTS 38 [2a3 1 0 0] 
s 0.232492037 _1_ MAC  --- 3 tcp 1098 [13a 0 1 800] ------- [1:0 0:0 30 0] [2 0] 0 0
s 0.234151148 _1_ MAC  --- 0 RTS 44 [3dd 0 1 0] 
s 0.235277815 _0_ MAC  --- 0 RTS 44 [349 1 0 0] 
s 0.237177815 _0_ MAC  --- 0 RTS 44 [349 1 0 0] 
r 0.237530481 _1_ MAC  --- 0 RTS 44 [349 1 0 0] 
s 0.237540481 _1_ MAC  --- 0 CTS 38 [20f 0 0 0] 
r 0.237845148 _0_ MAC  --- 0 CTS 38 [20f 0 0 0] 
s 0.237855148 _0_ MAC  --- 4 ack 98 [13a 1 0 800] ------- [0:0 1:0 30 1] [1 0] 0 0
s 0.239232778 _1_ MAC  --- 0 RTS 44 [3dd 0 1 0] 
s 0.240472778 _1_ MAC  --- 0 RTS 44 [3dd 0 1 0] 
r 0.240825444 _0_ MAC  --- 0 RTS 44 [3dd 0 1 0] 
s 0.240835444 _0_ MAC  --- 0 CTS 38 [2a3 1 0 0] 
r 0.241140111 _1_ MAC  --- 0 CTS 38 [2a3 1 0 0] 
s 0.241150111 _1_ MAC  --- 3 tcp 1098 [13a 0 1 800] ------- [1:0 0:0 30 0] [2 0] 0 0
s 0.242975889 _0_ MAC  --- 0 RTS 44 [349 1 0 0] 
s 0.243862556 _1_ MAC  --- 0 RTS 44 [3dd 0 1 0] 
s 0.249769222 _0_ MAC  --- 0 RTS 44 [349 1 0 0] 
s 0.257049222 _0_ MAC  --- 0 RTS 44 [349 1 0 0] 
r 0.257401889 _1_ MAC  --- 0 RTS 44 [349 1 0 0] 
s 0.257411889 _1_ MAC  --- 0 CTS 38 [20f 0 0 0] 
r 0.257716556 _0_ MAC  --- 0 CTS 38 [20f 0 0 0] 
s 0.257726556 _0_ MAC  --- 4 ack 98 [13a 1 0 800] ------- [0:0 1:0 30 1] [1 0] 0 0
s 0.258364185 _1_ MAC  --- 0 RTS 44 [3dd 0 1 0] 
r 0.258716852 _0_ MAC  --- 0 RTS 44 [3dd 0 1 0] 
s 0.258726852 _0_ MAC  --- 0 CTS 38 [2a3 1 0 0] 
s 0.264705519 _1_ MAC  --- 0 RTS 44 [3dd 0 1 0] 
r 0.265058185 _0_ MAC  --- 0 RTS 44 [3dd 0 1 0] 
s 0.265068185 _0_ MAC  --- 0 CTS 38 [2a3 1 0 0] 
r 0.265372852 _1_ MAC  --- 0 CTS 38 [2a3 1 0 0] 
s 0.265382852 _1_ MAC  --- 3 tcp 1098 [13a 0 1 800] ------- [1:0 0:0 30 0] [2 0] 0 0
r 0.265734630 _0_ MAC  --- 3 tcp 1040 [13a 0 1 800] ------- [1:0 0:0 30 0] [2 0] 1 0
s 0.265744630 _0_ MAC  --- 0 ACK 38 [0 1 0 0] 
r 0.265759630 _0_ AGT  --- 3 tcp 1040 [13a 0 1 800] ------- [1:0 0:0 30 0] [2 0] 1 0
s 0.265759630 _0_ AGT  --- 7 ack 40 [0 0 0 0] ------- [0:0 1:0 32 0] [2 0] 0 0
r 0.265759630 _0_ RTR  --- 7 ack 40 [0 0 0 0] ------- [0:0 1:0 32 0] [2 0] 0 0
s 0.265759630 _0_ RTR  --- 7 ack 40 [0 0 0 0] ------- [0:0 1:0 30 1] [2 0] 0 0
r 0.266049296 _1_ MAC  --- 0 ACK 38 [0 1 0 0] 
s 0.266459296 _1_ MAC  --- 0 RTS 44 [3dd 0 1 0] 
r 0.266811963 _0_ MAC  --- 0 RTS 44 [3dd 0 1 0] 
s 0.266821963 _0_ MAC  --- 0 CTS 38 [2a3 1 0 0] 
r 0.267126630 _1_ MAC  --- 0 CTS 38 [2a3 1 0 0] 
s 0.267136630 _1_ MAC  --- 5 tcp 1098 [13a 0 1 800] ------- [1:0 0:0 30 0] [3 0] 0 0
s 0.268155741 _1_ MAC  --- 0 RTS 44 [3dd 0 1 0] 
s 0.271075741 _1_ MAC  --- 0 RTS 44 [3dd 0 1 0] 
s 0.273935741 _1_ MAC  --- 0 RTS 44 [3dd 0 1 0] 
s 0.274655741 _1_ MAC  --- 0 RTS 44 [3dd 0 1 0] 
r 0.275008407 _0_ MAC  --- 0 RTS 44 [3dd 0 1 0] 
s 0.275018407 _0_ MAC  --- 0 CTS 38 [2a3 1 0 0] 
r 0.275323074 _1_ MAC  --- 0 CTS 38 [2a3 1 0 0] 
s 0.275333074 _1_ MAC  --- 5 tcp 1098 [13a 0 1 800] ------- [1:0 0:0 30 0] [3 0] 0 0
r 0.275684852 _0_ MAC  --- 5 tcp 1040 [13a 0 1 800] ------- [1:0 0:0 30 0] [3 0] 1 0
s 0.275694852 _0_ MAC  --- 0 ACK 38 [0 1 0 0] 
r 0.275709852 _0_ AGT  --- 5 tcp 1040 [13a 0 1 800] ------- [1:0 0:0 30 0] [3 0] 1 0
s 0.275709852 _0_ AGT  --- 8 ack 40 [0 0 0 0] ------- [0:0 1:0 32 0] [3 0] 0 0
r 0.275709852 _0_ RTR  --- 8 ack 40 [0 0 0 0] ------- [0:0 1:0 32 0] [3 0] 0 0
s 0.275709852 _0_ RTR  --- 8 ack 40 [0 0 0 0] ------- [0:0 1:0 30 1] [3 0] 0 0
s 0.277728852 _0_ MAC  --- 0 RTS 44 [349 1 0 0] 
s 0.283928852 _0_ MAC  --- 0 RTS 44 [349 1 0 0] 
s 0.287995519 _1_ MAC  --- 0 RTS 44 [3dd 0 1 0] 
r 0.288348185 _0_ MAC  --- 0 RTS 44 [3dd 0 1 0] 
s 0.288358185 _0_ MAC  --- 0 CTS 38 [2a3 1 0 0] 
r 0.288662852 _1_ MAC  --- 0 CTS 38 [2a3 1 0 0] 
s 0.288672852 _1_ MAC  --- 5 tcp 1098 [13a 0 1 800] ------- [1:0 0:0 30 0] [3 0] 0 0
D 0.289024630 _0_ MAC  DUP 5 tcp 1040 [13a 0 1 800] ------- [1:0 0:0 30 0] [3 0] 1 0
s 0.289034630 _0_ MAC  --- 0 ACK 38 [0 1 0 0] 
r 0.289339296 _1_ MAC  --- 0 ACK 38 [0 1 0 0] 
s 0.289589296 _1_ MAC  --- 0 RTS 44 [3dd 0 1 0] 
r 0.289941963 _0_ MAC  --- 0 RTS 44 [3dd 0 1 0] 
s 0.289951963 _0_ MAC  --- 0 CTS 38 [2a3 1 0 0] 
r 0.290256630 _1_ MAC  --- 0 CTS 38 [2a3 1 0 0] 
s 0.290266630 _1_ MAC  --- 6 tcp 1098 [13a 0 1 800] ------- [1:0 0:0 30 0] [4 0] 0 0
s 0.291185741 _1_ MAC  --- 0 RTS 44 [3dd 0 1 0] 
r 0.291538407 _0_ MAC  --- 0 RTS 44 [3dd 0 1 0] 
s 0.291548407 _0_ MAC  --- 0 CTS 38 [2a3 1 0 0] 
r 0.291853074 _1_ MAC  --- 0 CTS 38 [2a3 1 0 0] 
s 0.291863074 _1_ MAC  --- 6 tcp 1098 [13a 0 1 800] ------- [1:0 0:0 30 0] [4 0] 0 0
r 0.292214852 _0_ MAC  --- 6 tcp 1040 [13a 0 1 800] ------- [1:0 0:0 30 0] [4 0] 1 0
s 0.292224852 _0_ MAC  --- 0 ACK 38 [0 1 0 0] 
r 0.292239852 _0_ AGT  --- 6 tcp 1040 [13a 0 1 800] ------- [1:0 0:0 30 0] [4 0] 1 0
s 0.292239852 _0_ AGT  --- 9 ack 40 [0 0 0 0] ------- [0:0 1:0 32 0] [4 0] 0 0
r 0.292239852 _0_ RTR  --- 9 ack 40 [0 0 0 0] ------- [0:0 1:0 32 0] [4 0] 0 0
s 0.292239852 _0_ RTR  --- 9 ack 40 [0 0 0 0] ------- [0:0 1:0 30 1] [4 0] 0 0
r 0.292529519 _1_ MAC  --- 0 ACK 38 [0 1 0 0] 
s 0.294698852 _0_ MAC  --- 0 RTS 44 [349 1 0 0] 
r 0.295051519 _1_ MAC  --- 0 RTS 44 [349 1 0 0] 
s 0.295061519 _1_ MAC  --- 0 CTS 38 [20f 0 0 0] 
r 0.295366185 _0_ MAC  --- 0 CTS 38 [20f 0 0 0] 
s 0.295376185 _0_ MAC  --- 4 ack 98 [13a 1 0 800] ------- [0:0 1:0 30 1] [1 0] 0 0
D 0.295579815 _1_ MAC  DUP 4 ack 40 [13a 1 0 800] ------- [0:0 1:0 30 1] [1 0] 1 0
s 0.295589815 _1_ MAC  --- 0 ACK 38 [0 0 0 0] 
r 0.295894481 _0_ MAC  --- 0 ACK 38 [0 0 0 0] 
s 0.296064481 _0_ MAC  --- 0 RTS 44 [349 1 0 0] 
s 0.297504481 _0_ MAC  --- 0 RTS 44 [349 1 0 0] 
r 0.297857148 _1_ MAC  --- 0 RTS 44 [349 1 0 0] 
s 0.297867148 _1_ MAC  --- 0 CTS 38 [20f 0 0 0] 
r 0.298171815 _0_ MAC  --- 0 CTS 38 [20f 0 0 0] 
s 0.298181815 _0_ MAC  --- 7 ack 98 [13a 1 0 800] ------- [0:0 1:0 30 1] [2 0] 0 0
s 0.298772778 _0_ MAC  --- 0 RTS 44 [349 1 0 0] 
r 0.299125444 _1_ MAC  --- 0 RTS 44 [349 1 0 0] 
s 0.299135444 _1_ MAC  --- 0 CTS 38 [20f 0 0 0] 
r 0.299440111 _0_ MAC  --- 0 CTS 38 [20f 0 0 0] 
s 0.299450111 _0_ MAC  --- 7 ack 98 [13a 1 0 800] ------- [0:0 1:0 30 1] [2 0] 0 0
r 0.299653741 _1_ MAC  --- 7 ack 40 [13a 1 0 800] ------- [0:0 1:0 30 1] [2 0] 1 0
s 0.299663741 _1_ MAC  --- 0 ACK 38 [0 0 0 0] 
r 0.299678741 _1_ AGT  --- 7 ack 40 [13a 1 0 800] ------- [0:0 1:0 30 1] [2 0] 1 0
s 0.299678741 _1_ AGT  --- 10 tcp 1040 [0 0 0 0] ------- [1:0 0:0 32 0] [5 0] 0 0
r 0.299678741 _1_ RTR  --- 10 tcp 1040 [0 0 0 0] ------- [1:0 0:0 32 0] [5 0] 0 0
s 0.299678741 _1_ AGT  --- 11 tcp 1040 [0 0 0 0] ------- [1:0 0:0 32 0] [6 0] 0 0
r 0.299678741 _1_ RTR  --- 11 tcp 1040 [0 0 0 0] ------- [1:0 0:0 32 0] [6 0] 0 0
s 0.299678741 _1_ RTR  --- 10 tcp 1040 [0 0 0 0] ------- [1:0 0:0 30 0] [5 0] 0 0
s 0.299678741 _1_ RTR  --- 11 tcp 1040 [0 0 0 0] ------- [1:0 0:0 30 0] [6 0] 0 0
s 0.300297741 _1_ MAC  --- 0 RTS 44 [3dd 0 1 0] 
r 0.300650407 _0_ MAC  --- 0 RTS 44 [3dd 0 1 0] 
s 0.300660407 _0_ MAC  --- 0 CTS 38 [2a3 1 0 0] 
r 0.300965074 _1_ MAC  --- 0 CTS 38 [2a3 1 0 0] 
s 0.300975074 _1_ MAC  --- 10 tcp 1098 [13a 0 1 800] ------- [1:0 0:0 30 0] [5 0] 0 0
r 0.301326852 _0_ MAC  --- 10 tcp 1040 [13a 0 1 800] ------- [1:0 0:0 30 0] [5 0] 1 0
s 0.301336852 _0_ MAC  --- 0 ACK 38 [0 1 0 0] 
r 0.301351852 _0_ AGT  --- 10 tcp 1040 [13a 0 1 800] ------- [1:0 0:0 30 0] [5 0] 1 0
s 0.301351852 _0_ AGT  --- 12 ack 40 [0 0 0 0] ------- [0:0 1:0 32 0] [5 0] 0 0
r 0.301351852 _0_ RTR  --- 12 ack 40 [0 0 0 0] ------- [0:0 1:0 32 0] [5 0] 0 0
s 0.301351852 _0_ RTR  --- 12 ack 40 [0 0 0 0] ------- [0:0 1:0 30 1] [5 0] 0 0
r 0.301641519 _1_ MAC  --- 0 ACK 38 [0 1 0 0] 
s 0.301971519 _1_ MAC  --- 0 RTS 44 [3dd 0 1 0] 
s 0.303098185 _0_ MAC  --- 0 RTS 44 [349 1 0 0] 
r 0.303450852 _1_ MAC  --- 0 RTS 44 [349 1 0 0] 
s 0.303460852 _1_ MAC  --- 0 CTS 38 [20f 0 0 0] 
r 0.303765519 _0_ MAC  --- 0 CTS 38 [20f 0 0 0] 
s 0.303775519 _0_ MAC  --- 7 ack 98 [13a 1 0 800] ------- [0:0 1:0 30 1] [2 0] 0 0
D 0.303979148 _1_ MAC  DUP 7 ack 40 [13a 1 0 800] ------- [0:0 1:0 30 1] [2 0] 1 0
s 0.303989148 _1_ MAC  --- 0 ACK 38 [0 0 0 0] 
r 0.304293815 _0_ MAC  --- 0 ACK 38 [0 0 0 0] 
s 0.304343815 _0_ MAC  --- 0 RTS 44 [349 1 0 0] 
r 0.304696481 _1_ MAC  --- 0 RTS 44 [349 1 0 0] 
s 0.304706481 _1_ MAC  --- 0 CTS 38 [20f 0 0 0] 
r 0.305011148 _0_ MAC  --- 0 CTS 38 [20f 0 0 0] 
s 0.305021148 _0_ MAC  --- 8 ack 98 [13a 1 0 800] ------- [0:0 1:0 30 1] [3 0] 0 0
s 0.306038778 _1_ MAC  --- 0 RTS 44 [3dd 0 1 0] 
r 0.306391444 _0_ MAC  --- 0 RTS 44 [3dd 0 1 0] 
s 0.306401444 _0_ MAC  --- 0 CTS 38 [2a3 1 0 0] 
r 0.306706111 _1_ MAC  --- 0 CTS 38 [2a3 1 0 0] 
s 0.306716111 _1_ MAC  --- 11 tcp 1098 [13a 0 1 800] ------- [1:0 0:0 30 0] [6 0] 0 0
r 0.307067889 _0_ MAC  --- 11 tcp 1040 [13a 0 1 800] ------- [1:0 0:0 30 0] [6 0] 1 0
s 0.307077889 _0_ MAC  --- 0 ACK 38 [0 1 0 0] 
r 0.307092889 _0_ AGT  --- 11 tcp 1040 [13a 0 1 800] ------- [1:0 0:0 30 0] [6 0] 1 0
s 0.307092889 _0_ AGT  --- 13 ack 40 [0 0 0 0] ------- [0:0 1:0 32 0] [6 0] 0 0
r 0.307092889 _0_ RTR  --- 13 ack 40 [0 0 0 0] ------- [0:0 1:0 32 0] [6 0] 0 0
s 0.307092889 _0_ RTR  --- 13 ack 40 [0 0 0 0] ------- [0:0 1:0 30 1] [6 0] 0 0
r 0.307382556 _1_ MAC  --- 0 ACK 38 [0 1 0 0] 
s 0.307971889 _0_ MAC  --- 0 RTS 44 [349 1 0 0] 
r 0.308324556 _1_ MAC  --- 0 RTS 44 [349 1 0 0] 
s 0.308334556 _1_ MAC  --- 0 CTS 38 [20f 0 0 0] 
s 0.310633222 _0_ MAC  --- 0 RTS 44 [349 1 0 0] 
r 0.310985889 _1_ MAC  --- 0 RTS 44 [349 1 0 0] 
s 0.310995889 _1_ MAC  --- 0 CTS 38 [20f 0 0 0] 
s 0.313394556 _0_ MAC  --- 0 RTS 44 [349 1 0 0] 
s 0.320334556 _0_ MAC  --- 0 RTS 44 [349 1 0 0] 
r 0.320687222 _1_ MAC  --- 0 RTS 44 [349 1 0 0] 
s 0.320697222 _1_ MAC  --- 0 CTS 38 [20f 0 0 0] 
r 0.321001889 _0_ MAC  --- 0 CTS 38 [20f 0 0 0] 
s 0.321011889 _0_ MAC  --- 8 ack 98 [13a 1 0 800] ------- [0:0 1:0 30 1] [3 0] 0 0
r 0.321215519 _1_ MAC  --- 8 ack 40 [13a 1 0 800] ------- [0:0 1:0 30 1] [3 0] 1 0
s 0.321225519 _1_ MAC  --- 0 ACK 38 [0 0 0 0] 
r 0.321240519 _1_ AGT  --- 8 ack 40 [13a 1 0 800] ------- [0:0 1:0 30 1] [3 0] 1 0
s 0.321240519 _1_ AGT  --- 14 tcp 1040 [0 0 0 0] ------- [1:0 0:0 32 0] [7 0] 0 0
r 0.321240519 _1_ RTR  --- 14 tcp 1040 [0 0 0 0] ------- [1:0 0:0 32 0] [7 0] 0 0
s 0.321240519 _1_ AGT  --- 15 tcp 1040 [0 0 0 0] ------- [1:0 0:0 32 0] [8 0] 0 0
r 0.321240519 _1_ RTR  --- 15 tcp 1040 [0 0 0 0] ------- [1:0 0:0 32 0] [8 0] 0 0
s 0.321240519 _1_ RTR  --- 14 tcp 1040 [0 0 0 0] ------- [1:0 0:0 30 0] [7 0] 0 0
s 0.321240519 _1_ RTR  --- 15 tcp 1040 [0 0 0 0] ------- [1:0 0:0 30 0] [8 0] 0 0
r 0.321530185 _0_ MAC  --- 0 ACK 38 [0 0 0 0] 
s 0.321580185 _0_ MAC  --- 0 RTS 44 [349 1 0 0] 
r 0.321932852 _1_ MAC  --- 0 RTS 44 [349 1 0 0] 
s 0.321942852 _1_ MAC  --- 0 CTS 38 [20f 0 0 0] 
r 0.322247519 _0_ MAC  --- 0 CTS 38 [20f 0 0 0] 
s 0.322257519 _0_ MAC  --- 9 ack 98 [13a 1 0 800] ------- [0:0 1:0 30 1] [4 0] 0 0
s 0.323175148 _1_ MAC  --- 0 RTS 44 [3dd 0 1 0] 
r 0.323527815 _0_ MAC  --- 0 RTS 44 [3dd 0 1 0] 
s 0.323537815 _0_ MAC  --- 0 CTS 38 [2a3 1 0 0] 
r 0.323842481 _1_ MAC  --- 0 CTS 38 [2a3 1 0 0] 
s 0.323852481 _1_ MAC  --- 14 tcp 1098 [13a 0 1 800] ------- [1:0 0:0 30 0] [7 0] 0 0
r 0.324204259 _0_ MAC  --- 14 tcp 1040 [13a 0 1 800] ------- [1:0 0:0 30 0] [7 0] 1 0
s 0.324214259 _0_ MAC  --- 0 ACK 38 [0 1 0 0] 
r 0.324229259 _0_ AGT  --- 14 tcp 1040 [13a 0 1 800] ------- [1:0 0:0 30 0] [7 0] 1 0
s 0.324229259 _0_ AGT  --- 16 ack 40 [0 0 0 0] ------- [0:0 1:0 32 0] [7 0] 0 0
r 0.324229259 _0_ RTR  --- 16 ack 40 [0 0 0 0] ------- [0:0 1:0 32 0] [7 0] 0 0
s 0.324229259 _0_ RTR  --- 16 ack 40 [0 0 0 0] ------- [0:0 1:0 30 1] [7 0] 0 0
r 0.324518926 _1_ MAC  --- 0 ACK 38 [0 1 0 0] 
s 0.324668259 _0_ MAC  --- 0 RTS 44 [349 1 0 0] 
r 0.325020926 _1_ MAC  --- 0 RTS 44 [349 1 0 0] 
s 0.325030926 _1_ MAC  --- 0 CTS 38 [20f 0 0 0] 
r 0.325335593 _0_ MAC  --- 0 CTS 38 [20f 0 0 0] 
s 0.325345593 _0_ MAC  --- 9 ack 98 [13a 1 0 800] ------- [0:0 1:0 30 1] [4 0] 0 0
r 0.325549222 _1_ MAC  --- 9 ack 40 [13a 1 0 800] ------- [0:0 1:0 30 1] [4 0] 1 0
s 0.325559222 _1_ MAC  --- 0 ACK 38 [0 0 0 0] 
r 0.325574222 _1_ AGT  --- 9 ack 40 [13a 1 0 800] ------- [0:0 1:0 30 1] [4 0] 1 0
s 0.325574222 _1_ AGT  --- 17 tcp 1040 [0 0 0 0] ------- [1:0 0:0 32 0] [9 0] 0 0
r 0.325574222 _1_ RTR  --- 17 tcp 1040 [0 0 0 0] ------- [1:0 0:0 32 0] [9 0] 0 0
s 0.325574222 _1_ AGT  --- 18 tcp 1040 [0 0 0 0] ------- [1:0 0:0 32 0] [10 0] 0 0
r 0.325574222 _1_ RTR  --- 18 tcp 1040 [0 0 0 0] ------- [1:0 0:0 32 0] [10 0] 0 0
s 0.325574222 _1_ RTR  --- 17 tcp 1040 [0 0 0 0] ------- [1:0 0:0 30 0] [9 0] 0 0
s 0.325574222 _1_ RTR  --- 18 tcp 1040 [0 0 0 0] ------- [1:0 0:0 30 0] [10 0] 0 0
s 0.326133222 _1_ MAC  --- 0 RTS 44 [3dd 0 1 0] 
r 0.326485889 _0_ MAC  --- 0 RTS 44 [3dd 0 1 0] 
s 0.326495889 _0_ MAC  --- 0 CTS 38 [2a3 1 0 0] 
r 0.326800556 _1_ MAC  --- 0 CTS 38 [2a3 1 0 0] 
s 0.326810556 _1_ MAC  --- 15 tcp 1098 [13a 0 1 800] ------- [1:0 0:0 30 0] [8 0] 0 0
r 0.327162333 _0_ MAC  --- 15 tcp 1040 [13a 0 1 800] ------- [1:0 0:0 30 0] [8 0] 1 0
s 0.327172333 _0_ MAC  --- 0 ACK 38 [0 1 0 0] 
r 0.327187333 _0_ AGT  --- 15 tcp 1040 [13a 0 1 800] ------- [1:0 0:0 30 0] [8 0] 1 0
s 0.327187333 _0_ AGT  --- 19 ack 40 [0 0 0 0] ------- [0:0 1:0 32 0] [8 0] 0 0
r 0.327187333 _0_ RTR  --- 19 ack 40 [0 0 0 0] ------- [0:0 1:0 32 0] [8 0] 0 0
s 0.327187333 _0_ RTR  --- 19 ack 40 [0 0 0 0] ------- [0:0 1:0 30 1] [8 0] 0 0
r 0.327477000 _1_ MAC  --- 0 ACK 38 [0 1 0 0] 
s 0.327547000 _1_ MAC  --- 0 RTS 44 [3dd 0 1 0] 
r 0.327899667 _0_ MAC  --- 0 RTS 44 [3dd 0 1 0] 
s 0.327909667 _0_ MAC  --- 0 CTS 38 [2a3 1 0 0] 
r 0.328214333 _1_ MAC  --- 0 CTS 38 [2a3 1 0 0] 
s 0.328224333 _1_ MAC  --- 17 tcp 1098 [13a 0 1 800] ------- [1:0 0:0 30 0] [9 0] 0 0
r 0.328576111 _0_ MAC  --- 17 tcp 1040 [13a 0 1 800] ------- [1:0 0:0 30 0] [9 0] 1 0
s 0.328586111 _0_ MAC  --- 0 ACK 38 [0 1 0 0] 
r 0.328601111 _0_ AGT  --- 17 tcp 1040 [13a 0 1 800] ------- [1:0 0:0 30 0] [9 0] 1 0
s 0.328601111 _0_ AGT  --- 20 ack 40 [0 0 0 0] ------- [0:0 1:0 32 0] [9 0] 0 0
r 0.328601111 _0_ RTR  --- 20 ack 40 [0 0 0 0] ------- [0:0 1:0 32 0] [9 0] 0 0
s 0.328601111 _0_ RTR  --- 20 ack 40 [0 0 0 0] ------- [0:0 1:0 30 1] [9 0] 0 0
r 0.328890778 _1_ MAC  --- 0 ACK 38 [0 1 0 0] 
s 0.329420778 _1_ MAC  --- 0 RTS 44 [3dd 0 1 0] 
r 0.329773444 _0_ MAC  --- 0 RTS 44 [3dd 0 1 0] 
s 0.329783444 _0_ MAC  --- 0 CTS 38 [2a3 1 0 0] 
r 0.330088111 _1_ MAC  --- 0 CTS 38 [2a3 1 0 0] 
s 0.330098111 _1_ MAC  --- 18 tcp 1098 [13a 0 1 800] ------- [1:0 0:0 30 0] [10 0] 0 0
s 0.331703889 _0_ MAC  --- 0 RTS 44 [349 1 0 0] 
s 0.332510556 _1_ MAC  --- 0 RTS 44 [3dd 0 1 0] 
r 0.332863222 _0_ MAC  --- 0 RTS 44 [3dd 0 1 0] 
s 0.332873222 _0_ MAC  --- 0 CTS 38 [2a3 1 0 0] 
r 0.333177889 _1_ MAC  --- 0 CTS 38 [2a3 1 0 0] 
s 0.333187889 _1_ MAC  --- 18 tcp 1098 [13a 0 1 800] ------- [1:0 0:0 30 0] [10 0] 0 0
s 0.334747000 _1_ MAC  --- 0 RTS 44 [3dd 0 1 0] 
r 0.335099667 _0_ MAC  --- 0 RTS 44 [3dd 0 1 0] 
s 0.335109667 _0_ MAC  --- 0 CTS 38 [2a3 1 0 0] 
r 0.335414333 _1_ MAC  --- 0 CTS 38 [2a3 1 0 0] 
s 0.335424333 _1_ MAC  --- 18 tcp 1098 [13a 0 1 800] ------- [1:0 0:0 30 0] [10 0] 0 0
r 0.335776111 _0_ MAC  --- 18 tcp 1040 [13a 0 1 800] ------- [1:0 0:0 30 0] [10 0] 1 0
s 0.335786111 _0_ MAC  --- 0 ACK 38 [0 1 0 0] 
r 0.335801111 _0_ AGT  --- 18 tcp 1040 [13a 0 1 800] ------- [1:0 0:0 30 0] [10 0] 1 0
s 0.335801111 _0_ AGT  --- 21 ack 40 [0 0 0 0] ------- [0:0 1:0 32 0] [10 0] 0 0
r 0.335801111 _0_ RTR  --- 21 ack 40 [0 0 0 0] ------- [0:0 1:0 32 0] [10 0] 0 0
s 0.335801111 _0_ RTR  --- 21 ack 40 [0 0 0 0] ------- [0:0 1:0 30 1] [10 0] 0 0
r 0.336090778 _1_ MAC  --- 0 ACK 38 [0 1 0 0] 
s 0.339440111 _0_ MAC  --- 0 RTS 44 [349 1 0 0] 
r 0.339792778 _1_ MAC  --- 0 RTS 44 [349 1 0 0] 
s 0.339802778 _1_ MAC  --- 0 CTS 38 [20f 0 0 0] 
r 0.340107444 _0_ MAC  --- 0 CTS 38 [20f 0 0 0] 
s 0.340117444 _0_ MAC  --- 9 ack 98 [13a 1 0 800] ------- [0:0 1:0 30 1] [4 0] 0 0
s 0.343108407 _0_ MAC  --- 0 RTS 44 [349 1 0 0] 
r 0.343461074 _1_ MAC  --- 0 RTS 44 [349 1 0 0] 
s 0.343471074 _1_ MAC  --- 0 CTS 38 [20f 0 0 0] 
r 0.343775741 _0_ MAC  --- 0 CTS 38 [20f 0 0 0] 
s 0.343785741 _0_ MAC  --- 9 ack 98 [13a 1 0 800] ------- [0:0 1:0 30 1] [4 0] 0 0
D 0.343989370 _1_ MAC  DUP 9 ack 40 [13a 1 0 800] ------- [0:0 1:0 30 1] [4 0] 1 0
s 0.343999370 _1_ MAC  --- 0 ACK 38 [0 0 0 0] 
r 0.344304037 _0_ MAC  --- 0 ACK 38 [0 0 0 0] 
s 0.344474037 _0_ MAC  --- 0 RTS 44 [349 1 0 0] 
r 0.344826704 _1_ MAC  --- 0 RTS 44 [349 1 0 0] 
s 0.344836704 _1_ MAC  --- 0 CTS 38 [20f 0 0 0] 
r 0.345141370 _0_ MAC  --- 0 CTS 38 [20f 0 0 0] 
s 0.345151370 _0_ MAC  --- 12 ack 98 [13a 1 0 800] ------- [0:0 1:0 30 1] [5 0] 0 0
s 0.346142333 _0_ MAC  --- 0 RTS 44 [349 1 0 0] 
r 0.346495000 _1_ MAC  --- 0 RTS 44 [349 1 0 0] 
s 0.346505000 _1_ MAC  --- 0 CTS 38 [20f 0 0 0] 
r 0.346809667 _0_ MAC  --- 0 CTS 38 [20f 0 0 0] 
s 0.346819667 _0_ MAC  --- 12 ack 98 [13a 1 0 800] ------- [0:0 1:0 30 1] [5 0] 0 0
r 0.347023296 _1_ MAC  --- 12 ack 40 [13a 1 0 800] ------- [0:0 1:0 30 1] [5 0] 1 0
s 0.347033296 _1_ MAC  --- 0 ACK 38 [0 0 0 0] 
r 0.347048296 _1_ AGT  --- 12 ack 40 [13a 1 0 800] ------- [0:0 1:0 30 1] [5 0] 1 0
s 0.347048296 _1_ AGT  --- 22 tcp 1040 [0 0 0 0] ------- [1:0 0:0 32 0] [11 0] 0 0
r 0.347048296 _1_ RTR  --- 22 tcp 1040 [0 0 0 0] ------- [1:0 0:0 32 0] [11 0] 0 0
s 0.347048296 _1_ AGT  --- 23 tcp 1040 [0 0 0 0] ------- [1:0 0:0 32 0] [12 0] 0 0
r 0.347048296 _1_ RTR  --- 23 tcp 1040 [0 0 0 0] ------- [1:0 0:0 32 0] [12 0] 0 0
s 0.347048296 _1_ RTR  --- 22 tcp 1040 [0 0 0 0] ------- [1:0 0:0 30 0] [11 0] 0 0
s 0.347048296 _1_ RTR  --- 23 tcp 1040 [0 0 0 0] ------- [1:0 0:0 30 0] [12 0] 0 0
r 0.347337963 _0_ MAC  --- 0 ACK 38 [0 0 0 0] 
s 0.347467963 _0_ MAC  --- 0 RTS 44 [349 1 0 0] 
r 0.347820630 _1_ MAC  --- 0 RTS 44 [349 1 0 0] 
s 0.347830630 _1_ MAC  --- 0 CTS 38 [20f 0 0 0] 
s 0.348421630 _1_ MAC  --- 0 RTS 44 [3dd 0 1 0] 
r 0.348774296 _0_ MAC  --- 0 RTS 44 [3dd 0 1 0] 
s 0.348784296 _0_ MAC  --- 0 CTS 38 [2a3 1 0 0] 
r 0.349088963 _1_ MAC  --- 0 CTS 38 [2a3 1 0 0] 
s 0.349098963 _1_ MAC  --- 22 tcp 1098 [13a 0 1 800] ------- [1:0 0:0 30 0] [11 0] 0 0
r 0.349450741 _0_ MAC  --- 22 tcp 1040 [13a 0 1 800] ------- [1:0 0:0 30 0] [11 0] 1 0
s 0.349460741 _0_ MAC  --- 0 ACK 38 [0 1 0 0] 
r 0.349475741 _0_ AGT  --- 22 tcp 1040 [13a 0 1 800] ------- [1:0 0:0 30 0] [11 0] 1 0
s 0.349475741 _0_ AGT  --- 24 ack 40 [0 0 0 0] ------- [0:0 1:0 32 0] [11 0] 0 0
r 0.349475741 _0_ RTR  --- 24 ack 40 [0 0 0 0] ------- [0:0 1:0 32 0] [11 0] 0 0
s 0.349475741 _0_ RTR  --- 24 ack 40 [0 0 0 0] ------- [0:0 1:0 30 1] [11 0] 0 0
r 0.349765407 _1_ MAC  --- 0 ACK 38 [0 1 0 0] 
s 0.349894741 _0_ MAC  --- 0 RTS 44 [349 1 0 0] 
r 0.350247407 _1_ MAC  --- 0 RTS 44 [349 1 0 0] 
s 0.350257407 _1_ MAC  --- 0 CTS 38 [20f 0 0 0] 
r 0.350562074 _0_ MAC  --- 0 CTS 38 [20f 0 0 0] 
s 0.350572074 _0_ MAC  --- 13 ack 98 [13a 1 0 800] ------- [0:0 1:0 30 1] [6 0] 0 0
r 0.350775704 _1_ MAC  --- 13 ack 40 [13a 1 0 800] ------- [0:0 1:0 30 1] [6 0] 1 0
s 0.350785704 _1_ MAC  --- 0 ACK 38 [0 0 0 0] 
r 0.350800704 _1_ AGT  --- 13 ack 40 [13a 1 0 800] ------- [0:0 1:0 30 1] [6 0] 1 0
s 0.350800704 _1_ AGT  --- 25 tcp 1040 [0 0 0 0] ------- [1:0 0:0 32 0] [13 0] 0 0
r 0.350800704 _1_ RTR  --- 25 tcp 1040 [0 0 0 0] ------- [1:0 0:0 32 0] [13 0] 0 0
s 0.350800704 _1_ AGT  --- 26 tcp 1040 [0 0 0 0] ------- [1:0 0:0 32 0] [14 0] 0 0
r 0.350800704 _1_ RTR  --- 26 tcp 1040 [0 0 0 0] ------- [1:0 0:0 32 0] [14 0] 0 0
s 0.350800704 _1_ RTR  --- 25 tcp 1040 [0 0 0 0] ------- [1:0 0:0 30 0] [13 0] 0 0
s 0.350800704 _1_ RTR  --- 26 tcp 1040 [0 0 0 0] ------- [1:0 0:0 30 0] [14 0] 0 0
r 0.351090370 _0_ MAC  --- 0 ACK 38 [0 0 0 0] 
s 0.351200370 _0_ MAC  --- 0 RTS 44 [349 1 0 0] 
s 0.352027037 _1_ MAC  --- 0 RTS 44 [3dd 0 1 0] 
r 0.352379704 _0_ MAC  --- 0 RTS 44 [3dd 0 1 0] 
s 0.352389704 _0_ MAC  --- 0 CTS 38 [2a3 1 0 0] 
s 0.353508370 _1_ MAC  --- 0 RTS 44 [3dd 0 1 0] 
r 0.353861037 _0_ MAC  --- 0 RTS 44 [3dd 0 1 0] 
s 0.353871037 _0_ MAC  --- 0 CTS 38 [2a3 1 0 0] 
s 0.354670037 _0_ MAC  --- 0 RTS 44 [349 1 0 0] 
s 0.355450037 _0_ MAC  --- 0 RTS 44 [349 1 0 0] 
r 0.355802704 _1_ MAC  --- 0 RTS 44 [349 1 0 0] 
s 0.355812704 _1_ MAC  --- 0 CTS 38 [20f 0 0 0] 
s 0.357603704 _1_ MAC  --- 0 RTS 44 [3dd 0 1 0] 
s 0.359910370 _0_ MAC  --- 0 RTS 44 [349 1 0 0] 
r 0.360263037 _1_ MAC  --- 0 RTS 44 [349 1 0 0] 
s 0.360273037 _1_ MAC  --- 0 CTS 38 [20f 0 0 0] 
r 0.360577704 _0_ MAC  --- 0 CTS 38 [20f 0 0 0] 
s 0.360587704 _0_ MAC  --- 16 ack 98 [13a 1 0 800] ------- [0:0 1:0 30 1] [7 0] 0 0
r 0.360791333 _1_ MAC  --- 16 ack 40 [13a 1 0 800] ------- [0:0 1:0 30 1] [7 0] 1 0
s 0.360801333 _1_ MAC  --- 0 ACK 38 [0 0 0 0] 
r 0.360816333 _1_ AGT  --- 16 ack 40 [13a 1 0 800] ------- [0:0 1:0 30 1] [7 0] 1 0
s 0.360816333 _1_ AGT  --- 27 tcp 1040 [0 0 0 0] ------- [1:0 0:0 32 0] [15 0] 0 0
r 0.360816333 _1_ RTR  --- 27 tcp 1040 [0 0 0 0] ------- [1:0 0:0 32 0] [15 0] 0 0
s 0.360816333 _1_ AGT  --- 28 tcp 1040 [0 0 0 0] ------- [1:0 0:0 32 0] [16 0] 0 0
r 0.360816333 _1_ RTR  --- 28 tcp 1040 [0 0 0 0] ------- [1:0 0:0 32 0] [16 0] 0 0
s 0.360816333 _1_ RTR  --- 27 tcp 1040 [0 0 0 0] ------- [1:0 0:0 30 0] [15 0] 0 0
s 0.360816333 _1_ RTR  --- 28 tcp 1040 [0 0 0 0] ------- [1:0 0:0 30 0] [16 0] 0 0
s 0.364355333 _1_ MAC  --- 0 RTS 44 [3dd 0 1 0] 
r 0.364708000 _0_ MAC  --- 0 RTS 44 [3dd 0 1 0] 
s 0.364718000 _0_ MAC  --- 0 CTS 38 [2a3 1 0 0] 
r 0.365022667 _1_ MAC  --- 0 CTS 38 [2a3 1 0 0] 
s 0.365032667 _1_ MAC  --- 23 tcp 1098 [13a 0 1 800] ------- [1:0 0:0 30 0] [12 0] 0 0
r 0.365384444 _0_ MAC  --- 23 tcp 1040 [13a 0 1 800] ------- [1:0 0:0 30 0] [12 0] 1 0
s 0.365394444 _0_ MAC  --- 0 ACK 38 [0 1 0 0] 
r 0.365409444 _0_ AGT  --- 23 tcp 1040 [13a 0 1 800] ------- [1:0 0:0 30 0] [12 0] 1 0
s 0.365409444 _0_ AGT  --- 29 ack 40 [0 0 0 0] ------- [0:0 1:0 32 0] [12 0] 0 0
r 0.365409444 _0_ RTR  --- 29 ack 40 [0 0 0 0] ------- [0:0 1:0 32 0] [12 0] 0 0
s 0.365409444 _0_ RTR  --- 29 ack 40 [0 0 0 0] ------- [0:0 1:0 30 1] [12 0] 0 0
r 0.365699111 _1_ MAC  --- 0 ACK 38 [0 1 0 0] 
s 0.366189111 _1_ MAC  --- 0 RTS 44 [3dd 0 1 0] 
s 0.368129111 _1_ MAC  --- 0 RTS 44 [3dd 0 1 0] 
r 0.368481778 _0_ MAC  --- 0 RTS 44 [3dd 0 1 0] 
s 0.368491778 _0_ MAC  --- 0 CTS 38 [2a3 1 0 0] 
s 0.369270444 _1_ MAC  --- 0 RTS 44 [3dd 0 1 0] 
s 0.371250444 _1_ MAC  --- 0 RTS 44 [3dd 0 1 0] 