M 0.10000 0 (258.00, 500.00, 0.00), (250.00, 500.00), 1000.00
M 0.10000 1 (400.00, 500.00, 0.00), (400.00, 500.00), 1000.00
s 0.200000000 _1_ AGT  --- 0 tcp 40 [0 0 0 0] ------- [1:0 0:0 32 0] [0 0] 0 0
r 0.200000000 _1_ RTR  --- 0 tcp 40 [0 0 0 0] ------- [1:0 0:0 32 0] [0 0] 0 0
s 0.200000000 _1_ RTR  --- 0 AODV 48 [0 0 0 0] ------- [1:255 -1:255 30 0] [0x2 1 1 [0 0] [1 4]] (REQUEST)
s 0.200115000 _1_ MAC  --- 0 AODV 106 [0 ffffffff 1 800] ------- [1:255 -1:255 30 0] [0x2 1 1 [0 0] [1 4]] (REQUEST)
r 0.200963500 _0_ MAC  --- 0 AODV 48 [0 ffffffff 1 800] ------- [1:255 -1:255 30 0] [0x2 1 1 [0 0] [1 4]] (REQUEST)
r 0.200988500 _0_ RTR  --- 0 AODV 48 [0 ffffffff 1 800] ------- [1:255 -1:255 30 0] [0x2 1 1 [0 0] [1 4]] (REQUEST)
s 0.200988500 _0_ RTR  --- 0 AODV 44 [0 0 0 0] ------- [0:255 1:255 30 1] [0x4 1 [0 4] 10.000000] (REPLY)
s 0.201343500 _0_ MAC  --- 0 ARP 86 [0 ffffffff 0 806] ------- [REQUEST 0/0 0/1]
r 0.202032000 _1_ MAC  --- 0 ARP 28 [0 ffffffff 0 806] ------- [REQUEST 0/0 0/1]
s 0.202322000 _1_ MAC  --- 0 RTS 44 [347 0 1 0] 
r 0.202674500 _0_ MAC  --- 0 RTS 44 [347 0 1 0] 
s 0.202684500 _0_ MAC  --- 0 CTS 38 [20d 1 0 0] 
r 0.202989000 _1_ MAC  --- 0 CTS 38 [20d 1 0 0] 
s 0.202999000 _1_ MAC  --- 0 ARP 86 [13a 0 1 806] ------- [REPLY 1/1 0/0]
r 0.203200685 _0_ MAC  --- 0 ARP 28 [13a 0 1 806] ------- [REPLY 1/1 0/0]
s 0.203210685 _0_ MAC  --- 0 ACK 38 [0 1 0 0] 
s 0.203644685 _0_ MAC  --- 0 RTS 44 [34a 1 0 0] 
s 0.204444685 _0_ MAC  --- 0 RTS 44 [34a 1 0 0] 
r 0.204797185 _1_ MAC  --- 0 RTS 44 [34a 1 0 0] 
s 0.204807185 _1_ MAC  --- 0 CTS 38 [210 0 0 0] 
s 0.206019185 _1_ MAC  --- 0 RTS 44 [347 0 1 0] 
r 0.206371685 _0_ MAC  --- 0 RTS 44 [347 0 1 0] 
s 0.206381685 _0_ MAC  --- 0 CTS 38 [20d 1 0 0] 
r 0.206686185 _1_ MAC  --- 0 CTS 38 [20d 1 0 0] 
s 0.206696185 _1_ MAC  --- 0 ARP 86 [13a 0 1 806] ------- [REPLY 1/1 0/0]
D 0.206897870 _0_ MAC  DUP 0 ARP 28 [13a 0 1 806] ------- [REPLY 1/1 0/0]
s 0.206907870 _0_ MAC  --- 0 ACK 38 [0 1 0 0] 
r 0.207212370 _1_ MAC  --- 0 ACK 38 [0 1 0 0] 
s 0.209001870 _0_ MAC  --- 0 RTS 44 [34a 1 0 0] 
r 0.209354370 _1_ MAC  --- 0 RTS 44 [34a 1 0 0] 
s 0.209364370 _1_ MAC  --- 0 CTS 38 [210 0 0 0] 
r 0.209668870 _0_ MAC  --- 0 CTS 38 [210 0 0 0] 
s 0.209678870 _0_ MAC  --- 0 AODV 102 [13a 1 0 800] ------- [0:255 1:255 30 1] [0x4 1 [0 4] 10.000000] (REPLY)
r 0.209882926 _1_ MAC  --- 0 AODV 44 [13a 1 0 800] ------- [0:255 1:255 30 1] [0x4 1 [0 4] 10.000000] (REPLY)
s 0.209892926 _1_ MAC  --- 0 ACK 38 [0 0 0 0] 
r 0.209907926 _1_ RTR  --- 0 AODV 44 [13a 1 0 800] ------- [0:255 1:255 30 1] [0x4 1 [0 4] 10.000000] (REPLY)
s 0.209907926 _1_ RTR  --- 0 tcp 40 [0 0 0 0] ------- [1:0 0:0 30 0] [0 0] 0 0
r 0.210197426 _0_ MAC  --- 0 ACK 38 [0 0 0 0] 
s 0.210606926 _1_ MAC  --- 0 RTS 44 [349 0 1 0] 
s 0.212006926 _1_ MAC  --- 0 RTS 44 [349 0 1 0] 
r 0.212359426 _0_ MAC  --- 0 RTS 44 [349 0 1 0] 
s 0.212369426 _0_ MAC  --- 0 CTS 38 [20f 1 0 0] 
r 0.212673926 _1_ MAC  --- 0 CTS 38 [20f 1 0 0] 
s 0.212683926 _1_ MAC  --- 0 tcp 98 [13a 0 1 800] ------- [1:0 0:0 30 0] [0 0] 0 0
s 0.213794889 _1_ MAC  --- 0 RTS 44 [349 0 1 0] 
r 0.214147389 _0_ MAC  --- 0 RTS 44 [349 0 1 0] 
s 0.214157389 _0_ MAC  --- 0 CTS 38 [20f 1 0 0] 
r 0.214461889 _1_ MAC  --- 0 CTS 38 [20f 1 0 0] 
s 0.214471889 _1_ MAC  --- 0 tcp 98 [13a 0 1 800] ------- [1:0 0:0 30 0] [0 0] 0 0
r 0.214675352 _0_ MAC  --- 0 tcp 40 [13a 0 1 800] ------- [1:0 0:0 30 0] [0 0] 1 0
s 0.214685352 _0_ MAC  --- 0 ACK 38 [0 1 0 0] 
r 0.214700352 _0_ AGT  --- 0 tcp 40 [13a 0 1 800] ------- [1:0 0:0 30 0] [0 0] 1 0
s 0.214700352 _0_ AGT  --- 1 ack 40 [0 0 0 0] ------- [0:0 1:0 32 0] [0 0] 0 0
r 0.214700352 _0_ RTR  --- 1 ack 40 [0 0 0 0] ------- [0:0 1:0 32 0] [0 0] 0 0
s 0.214700352 _0_ RTR  --- 1 ack 40 [0 0 0 0] ------- [0:0 1:0 30 1] [0 0] 0 0
r 0.214989852 _1_ MAC  --- 0 ACK 38 [0 1 0 0] 
s 0.215579352 _0_ MAC  --- 0 RTS 44 [349 1 0 0] 
r 0.215931852 _1_ MAC  --- 0 RTS 44 [349 1 0 0] 
s 0.215941852 _1_ MAC  --- 0 CTS 38 [20f 0 0 0] 
s 0.217340352 _0_ MAC  --- 0 RTS 44 [349 1 0 0] 
s 0.220080352 _0_ MAC  --- 0 RTS 44 [349 1 0 0] 
r 0.220432852 _1_ MAC  --- 0 RTS 44 [349 1 0 0] 
s 0.220442852 _1_ MAC  --- 0 CTS 38 [20f 0 0 0] 
r 0.220747352 _0_ MAC  --- 0 CTS 38 [20f 0 0 0] 
s 0.220757352 _0_ MAC  --- 1 ack 98 [13a 1 0 800] ------- [0:0 1:0 30 1] [0 0] 0 0
r 0.220960815 _1_ MAC  --- 1 ack 40 [13a 1 0 800] ------- [0:0 1:0 30 1] [0 0] 1 0
s 0.220970815 _1_ MAC  --- 0 ACK 38 [0 0 0 0] 
r 0.220985815 _1_ AGT  --- 1 ack 40 [13a 1 0 800] ------- [0:0 1:0 30 1] [0 0] 1 0
s 0.220985815 _1_ AGT  --- 2 tcp 1040 [0 0 0 0] ------- [1:0 0:0 32 0] [1 0] 0 0
r 0.220985815 _1_ RTR  --- 2 tcp 1040 [0 0 0 0] ------- [1:0 0:0 32 0] [1 0] 0 0
s 0.220985815 _1_ AGT  --- 3 tcp 1040 [0 0 0 0] ------- [1:0 0:0 32 0] [2 0] 0 0
r 0.220985815 _1_ RTR  --- 3 tcp 1040 [0 0 0 0] ------- [1:0 0:0 32 0] [2 0] 0 0
s 0.220985815 _1_ RTR  --- 2 tcp 1040 [0 0 0 0] ------- [1:0 0:0 30 0] [1 0] 0 0
s 0.220985815 _1_ RTR  --- 3 tcp 1040 [0 0 0 0] ------- [1:0 0:0 30 0] [2 0] 0 0
r 0.221275315 _0_ MAC  --- 0 ACK 38 [0 0 0 0] 
s 0.221484815 _1_ MAC  --- 0 RTS 44 [3dd 0 1 0] 
s 0.222304815 _1_ MAC  --- 0 RTS 44 [3dd 0 1 0] 
r 0.222657315 _0_ MAC  --- 0 RTS 44 [3dd 0 1 0] 
s 0.222667315 _0_ MAC  --- 0 CTS 38 [2a3 1 0 0] 
r 0.222971815 _1_ MAC  --- 0 CTS 38 [2a3 1 0 0] 
s 0.222981815 _1_ MAC  --- 2 tcp 1098 [13a 0 1 800] ------- [1:0 0:0 30 0] [1 0] 0 0
s 0.223980926 _1_ MAC  --- 0 RTS 44 [3dd 0 1 0] 
r 0.224333426 _0_ MAC  --- 0 RTS 44 [3dd 0 1 0] 
s 0.224343426 _0_ MAC  --- 0 CTS 38 [2a3 1 0 0] 
r 0.224647926 _1_ MAC  --- 0 CTS 38 [2a3 1 0 0] 
s 0.224657926 _1_ MAC  --- 2 tcp 1098 [13a 0 1 800] ------- [1:0 0:0 30 0] [1 0] 0 0
r 0.225009537 _0_ MAC  --- 2 tcp 1040 [13a 0 1 800] ------- [1:0 0:0 30 0] [1 0] 1 0
s 0.225019537 _0_ MAC  --- 0 ACK 38 [0 1 0 0] 
r 0.225034537 _0_ AGT  --- 2 tcp 1040 [13a 0 1 800] ------- [1:0 0:0 30 0] [1 0] 1 0
s 0.225034537 _0_ AGT  --- 4 ack 40 [0 0 0 0] ------- [0:0 1:0 32 0] [1 0] 0 0
r 0.225034537 _0_ RTR  --- 4 ack 40 [0 0 0 0] ------- [0:0 1:0 32 0] [1 0] 0 0
s 0.225034537 _0_ RTR  --- 4 ack 40 [0 0 0 0] ------- [0:0 1:0 30 1] [1 0] 0 0
s 0.225573537 _0_ MAC  --- 0 RTS 44 [349 1 0 0] 
r 0.225926037 _1_ MAC  --- 0 RTS 44 [349 1 0 0] 
s 0.225936037 _1_ MAC  --- 0 CTS 38 [20f 0 0 0] 
s 0.227674537 _0_ MAC  --- 0 RTS 44 [349 1 0 0] 
s 0.229574537 _0_ MAC  --- 0 RTS 44 [349 1 0 0] 
s 0.232241037 _1_ MAC  --- 0 RTS 44 [3dd 0 1 0] 
r 0.232593537 _0_ MAC  --- 0 RTS 44 [3dd 0 1 0] 
s 0.232603537 _0_ MAC  --- 0 CTS 38 [2a3 1 0 0] 
r 0.232908037 _1_ MAC  --- 0 CTS 38 [2a3 1 0 0] 
s 0.232918037 _1_ MAC  --- 2 tcp 1098 [13a 0 1 800] ------- [1:0 0:0 30 0] [1 0] 0 0
s 0.234063648 _0_ MAC  --- 0 RTS 44 [349 1 0 0] 
s 0.236003648 _0_ MAC  --- 0 RTS 44 [349 1 0 0] 
s 0.242490148 _1_ MAC  --- 0 RTS 44 [3dd 0 1 0] 
r 0.242842648 _0_ MAC  --- 0 RTS 44 [3dd 0 1 0] 
s 0.242852648 _0_ MAC  --- 0 CTS 38 [2a3 1 0 0] 
s 0.253091648 _0_ MAC  --- 0 RTS 44 [349 1 0 0] 
r 0.253444148 _1_ MAC  --- 0 RTS 44 [349 1 0 0] 
s 0.253454148 _1_ MAC  --- 0 CTS 38 [20f 0 0 0] 
r 0.253758648 _0_ MAC  --- 0 CTS 38 [20f 0 0 0] 
s 0.253768648 _0_ MAC  --- 4 ack 98 [13a 1 0 800] ------- [0:0 1:0 30 1] [1 0] 0 0
r 0.253972111 _1_ MAC  --- 4 ack 40 [13a 1 0 800] ------- [0:0 1:0 30 1] [1 0] 1 0
s 0.253982111 _1_ MAC  --- 0 ACK 38 [0 0 0 0] 
r 0.253997111 _1_ AGT  --- 4 ack 40 [13a 1 0 800] ------- [0:0 1:0 30 1] [1 0] 1 0
s 0.253997111 _1_ AGT  --- 5 tcp 1040 [0 0 0 0] ------- [1:0 0:0 32 0] [3 0] 0 0
r 0.253997111 _1_ RTR  --- 5 tcp 1040 [0 0 0 0] ------- [1:0 0:0 32 0] [3 0] 0 0
s 0.253997111 _1_ AGT  --- 6 tcp 1040 [0 0 0 0] ------- [1:0 0:0 32 0] [4 0] 0 0
r 0.253997111 _1_ RTR  --- 6 tcp 1040 [0 0 0 0] ------- [1:0 0:0 32 0] [4 0] 0 0
s 0.253997111 _1_ RTR  --- 5 tcp 1040 [0 0 0 0] ------- [1:0 0:0 30 0] [3 0] 0 0
s 0.253997111 _1_ RTR  --- 6 tcp 1040 [0 0 0 0] ------- [1:0 0:0 30 0] [4 0] 0 0
r 0.254286611 _0_ MAC  --- 0 ACK 38 [0 0 0 0] 
s 0.256516111 _1_ MAC  --- 0 RTS 44 [3dd 0 1 0] 
r 0.256868611 _0_ MAC  --- 0 RTS 44 [3dd 0 1 0] 
s 0.256878611 _0_ MAC  --- 0 CTS 38 [2a3 1 0 0] 
r 0.257183111 _1_ MAC  --- 0 CTS 38 [2a3 1 0 0] 
s 0.257193111 _1_ MAC  --- 2 tcp 1098 [13a 0 1 800] ------- [1:0 0:0 30 0] [1 0] 0 0
D 0.257862222 _1_ RTR  CBK 2 tcp 1040 [13a 0 1 800] ------- [1:0 0:0 30 0] [1 0] 0 0
D 0.257862222 _1_ RTR  CBK 3 tcp 1040 [0 0 1 800] ------- [1:0 0:0 30 0] [2 0] 0 0
D 0.257862222 _1_ RTR  CBK 5 tcp 1040 [0 0 1 800] ------- [1:0 0:0 30 0] [3 0] 0 0
D 0.257862222 _1_ RTR  CBK 6 tcp 1040 [0 0 1 800] ------- [1:0 0:0 30 0] [4 0] 0 0
D 0.257862222 _1_ MAC  RET 2 tcp 1040 [13a 0 1 800] ------- [1:0 0:0 30 0] [1 0] 0 0
s 0.257862222 _1_ RTR  --- 0 AODV 32 [0 0 0 0] ------- [1:255 -1:255 1 0] [0x8 1 [0 0] 0.000000] (ERROR)
s 0.257977222 _1_ MAC  --- 0 AODV 90 [0 ffffffff 1 800] ------- [1:255 -1:255 1 0] [0x8 1 [0 0] 0.000000] (ERROR)
s 0.453997111 _1_ AGT  --- 7 tcp 1040 [0 0 0 0] ------- [1:0 0:0 32 0] [2 0] 0 0
r 0.453997111 _1_ RTR  --- 7 tcp 1040 [0 0 0 0] ------- [1:0 0:0 32 0] [2 0] 0 0
s 0.453997111 _1_ RTR  --- 0 AODV 48 [0 0 0 0] ------- [1:255 -1:255 3 0] [0x2 1 2 [0 5] [1 8]] (REQUEST)
s 0.454432111 _1_ MAC  --- 0 AODV 106 [0 ffffffff 1 800] ------- [1:255 -1:255 3 0] [0x2 1 2 [0 5] [1 8]] (REQUEST)
r 0.455280611 _0_ MAC  --- 0 AODV 48 [0 ffffffff 1 800] ------- [1:255 -1:255 3 0] [0x2 1 2 [0 5] [1 8]] (REQUEST)
r 0.455305611 _0_ RTR  --- 0 AODV 48 [0 ffffffff 1 800] ------- [1:255 -1:255 3 0] [0x2 1 2 [0 5] [1 8]] (REQUEST)
s 0.455305611 _0_ RTR  --- 0 AODV 44 [0 0 0 0] ------- [0:255 1:255 30 1] [0x4 1 [0 6] 10.000000] (REPLY)
s 0.455460611 _0_ MAC  --- 0 RTS 44 [34a 1 0 0] 
r 0.455813111 _1_ MAC  --- 0 RTS 44 [34a 1 0 0] 
s 0.455823111 _1_ MAC  --- 0 CTS 38 [210 0 0 0] 
r 0.456127611 _0_ MAC  --- 0 CTS 38 [210 0 0 0] 
s 0.456137611 _0_ MAC  --- 0 AODV 102 [13a 1 0 800] ------- [0:255 1:255 30 1] [0x4 1 [0 6] 10.000000] (REPLY)
r 0.456341667 _1_ MAC  --- 0 AODV 44 [13a 1 0 800] ------- [0:255 1:255 30 1] [0x4 1 [0 6] 10.000000] (REPLY)
s 0.456351667 _1_ MAC  --- 0 ACK 38 [0 0 0 0] 
r 0.456366667 _1_ RTR  --- 0 AODV 44 [13a 1 0 800] ------- [0:255 1:255 30 1] [0x4 1 [0 6] 10.000000] (REPLY)
s 0.456366667 _1_ RTR  --- 7 tcp 1040 [0 0 0 0] ------- [1:0 0:0 30 0] [2 0] 0 0
r 0.456656167 _0_ MAC  --- 0 ACK 38 [0 0 0 0] 
s 0.456725667 _1_ MAC  --- 0 RTS 44 [3dd 0 1 0] 
r 0.457078167 _0_ MAC  --- 0 RTS 44 [3dd 0 1 0] 
s 0.457088167 _0_ MAC  --- 0 CTS 38 [2a3 1 0 0] 
r 0.457392667 _1_ MAC  --- 0 CTS 38 [2a3 1 0 0] 
s 0.457402667 _1_ MAC  --- 7 tcp 1098 [13a 0 1 800] ------- [1:0 0:0 30 0] [2 0] 0 0
r 0.457754278 _0_ MAC  --- 7 tcp 1040 [13a 0 1 800] ------- [1:0 0:0 30 0] [2 0] 1 0
s 0.457764278 _0_ MAC  --- 0 ACK 38 [0 1 0 0] 
r 0.457779278 _0_ AGT  --- 7 tcp 1040 [13a 0 1 800] ------- [1:0 0:0 30 0] [2 0] 1 0
s 0.457779278 _0_ AGT  --- 8 ack 40 [0 0 0 0] ------- [0:0 1:0 32 0] [2 0] 0 0
r 0.457779278 _0_ RTR  --- 8 ack 40 [0 0 0 0] ------- [0:0 1:0 32 0] [2 0] 0 0
s 0.457779278 _0_ RTR  --- 8 ack 40 [0 0 0 0] ------- [0:0 1:0 30 1] [2 0] 0 0
r 0.458068778 _1_ MAC  --- 0 ACK 38 [0 1 0 0] 
s 0.458378278 _0_ MAC  --- 0 RTS 44 [349 1 0 0] 
s 0.460178278 _0_ MAC  --- 0 RTS 44 [349 1 0 0] 
s 0.463318278 _0_ MAC  --- 0 RTS 44 [349 1 0 0] 
s 0.466898278 _0_ MAC  --- 0 RTS 44 [349 1 0 0] 
r 0.467250778 _1_ MAC  --- 0 RTS 44 [349 1 0 0] 
s 0.467260778 _1_ MAC  --- 0 CTS 38 [20f 0 0 0] 
s 0.477619278 _0_ MAC  --- 0 RTS 44 [349 1 0 0] 
s 0.485739278 _0_ MAC  --- 0 RTS 44 [349 1 0 0] 
s 0.505119278 _0_ MAC  --- 0 RTS 44 [349 1 0 0] 
r 0.505471778 _1_ MAC  --- 0 RTS 44 [349 1 0 0] 
s 0.505481778 _1_ MAC  --- 0 CTS 38 [20f 0 0 0] 
D 0.505789278 _0_ MAC  RET 0 RTS 44 [349 1 0 0] 
D 0.505789278 _0_ RTR  CBK 8 ack 40 [13a 1 0 800] ------- [0:0 1:0 30 1] [2 0] 0 0
D 0.505789278 _0_ MAC  RET 8 ack 40 [13a 1 0 800] ------- [0:0 1:0 30 1] [2 0] 0 0
s 0.505789278 _0_ RTR  --- 0 AODV 32 [0 0 0 0] ------- [0:255 -1:255 1 0] [0x8 1 [1 0] 0.000000] (ERROR)
s 0.506320278 _0_ MAC  --- 0 AODV 90 [0 ffffffff 0 800] ------- [0:255 -1:255 1 0] [0x8 1 [1 0] 0.000000] (ERROR)
r 0.507040778 _1_ MAC  --- 0 AODV 32 [0 ffffffff 0 800] ------- [0:255 -1:255 1 0] [0x8 1 [1 0] 0.000000] (ERROR)
r 0.507065778 _1_ RTR  --- 0 AODV 32 [0 ffffffff 0 800] ------- [0:255 -1:255 1 0] [0x8 1 [1 0] 0.000000] (ERROR)
s 0.853997111 _1_ AGT  --- 9 tcp 1040 [0 0 0 0] ------- [1:0 0:0 32 0] [2 0] 0 0
r 0.853997111 _1_ RTR  --- 9 tcp 1040 [0 0 0 0] ------- [1:0 0:0 32 0] [2 0] 0 0
s 0.853997111 _1_ RTR  --- 9 tcp 1040 [0 0 0 0] ------- [1:0 0:0 30 0] [2 0] 0 0
s 0.854572111 _1_ MAC  --- 0 RTS 44 [3dd 0 1 0] 
r 0.854924611 _0_ MAC  --- 0 RTS 44 [3dd 0 1 0] 
s 0.854934611 _0_ MAC  --- 0 CTS 38 [2a3 1 0 0] 
r 0.855239111 _1_ MAC  --- 0 CTS 38 [2a3 1 0 0] 
s 0.855249111 _1_ MAC  --- 9 tcp 1098 [13a 0 1 800] ------- [1:0 0:0 30 0] [2 0] 0 0
r 0.855600722 _0_ MAC  --- 9 tcp 1040 [13a 0 1 800] ------- [1:0 0:0 30 0] [2 0] 1 0
s 0.855610722 _0_ MAC  --- 0 ACK 38 [0 1 0 0] 
r 0.855625722 _0_ AGT  --- 9 tcp 1040 [13a 0 1 800] ------- [1:0 0:0 30 0] [2 0] 1 0
s 0.855625722 _0_ AGT  --- 10 ack 40 [0 0 0 0] ------- [0:0 1:0 32 0] [2 0] 0 0
r 0.855625722 _0_ RTR  --- 10 ack 40 [0 0 0 0] ------- [0:0 1:0 32 0] [2 0] 0 0
s 0.855625722 _0_ RTR  --- 0 AODV 48 [0 0 0 0] ------- [0:255 -1:255 3 0] [0x2 1 1 [1 9] [0 10]] (REQUEST)
r 0.855915222 _1_ MAC  --- 0 ACK 38 [0 1 0 0] 
s 0.856244722 _0_ MAC  --- 0 AODV 106 [0 ffffffff 0 800] ------- [0:255 -1:255 3 0] [0x2 1 1 [1 9] [0 10]] (REQUEST)
r 0.857093222 _1_ MAC  --- 0 AODV 48 [0 ffffffff 0 800] ------- [0:255 -1:255 3 0] [0x2 1 1 [1 9] [0 10]] (REQUEST)
r 0.857118222 _1_ RTR  --- 0 AODV 48 [0 ffffffff 0 800] ------- [0:255 -1:255 3 0] [0x2 1 1 [1 9] [0 10]] (REQUEST)
s 0.857118222 _1_ RTR  --- 0 AODV 44 [0 0 0 0] ------- [1:255 0:255 30 0] [0x4 1 [1 10] 10.000000] (REPLY)
s 0.857673222 _1_ MAC  --- 0 RTS 44 [34a 0 1 0] 
r 0.858025722 _0_ MAC  --- 0 RTS 44 [34a 0 1 0] 
s 0.858035722 _0_ MAC  --- 0 CTS 38 [210 1 0 0] 
r 0.858340222 _1_ MAC  --- 0 CTS 38 [210 1 0 0] 
s 0.858350222 _1_ MAC  --- 0 AODV 102 [13a 0 1 800] ------- [1:255 0:255 30 0] [0x4 1 [1 10] 10.000000] (REPLY)
r 0.858554278 _0_ MAC  --- 0 AODV 44 [13a 0 1 800] ------- [1:255 0:255 30 0] [0x4 1 [1 10] 10.000000] (REPLY)
s 0.858564278 _0_ MAC  --- 0 ACK 38 [0 1 0 0] 
r 0.858579278 _0_ RTR  --- 0 AODV 44 [13a 0 1 800] ------- [1:255 0:255 30 0] [0x4 1 [1 10] 10.000000] (REPLY)
s 0.858579278 _0_ RTR  --- 10 ack 40 [0 0 0 0] ------- [0:0 1:0 30 1] [2 0] 0 0
s 0.858918278 _0_ MAC  --- 0 RTS 44 [349 1 0 0] 
s 0.860518278 _0_ MAC  --- 0 RTS 44 [349 1 0 0] 
r 0.860870778 _1_ MAC  --- 0 RTS 44 [349 1 0 0] 
s 0.860880778 _1_ MAC  --- 0 CTS 38 [20f 0 0 0] 
r 0.861185278 _0_ MAC  --- 0 CTS 38 [20f 0 0 0] 
s 0.861195278 _0_ MAC  --- 10 ack 98 [13a 1 0 800] ------- [0:0 1:0 30 1] [2 0] 0 0
r 0.861398741 _1_ MAC  --- 10 ack 40 [13a 1 0 800] ------- [0:0 1:0 30 1] [2 0] 1 0
s 0.861408741 _1_ MAC  --- 0 ACK 38 [0 0 0 0] 
r 0.861423741 _1_ AGT  --- 10 ack 40 [13a 1 0 800] ------- [0:0 1:0 30 1] [2 0] 1 0
s 0.861423741 _1_ AGT  --- 11 tcp 1040 [0 0 0 0] ------- [1:0 0:0 32 0] [3 0] 0 0
r 0.861423741 _1_ RTR  --- 11 tcp 1040 [0 0 0 0] ------- [1:0 0:0 32 0] [3 0] 0 0
s 0.861423741 _1_ AGT  --- 12 tcp 1040 [0 0 0 0] ------- [1:0 0:0 32 0] [4 0] 0 0
r 0.861423741 _1_ RTR  --- 12 tcp 1040 [0 0 0 0] ------- [1:0 0:0 32 0] [4 0] 0 0
s 0.861423741 _1_ RTR  --- 11 tcp 1040 [0 0 0 0] ------- [1:0 0:0 30 0] [3 0] 0 0
s 0.861423741 _1_ RTR  --- 12 tcp 1040 [0 0 0 0] ------- [1:0 0:0 30 0] [4 0] 0 0
r 0.861713241 _0_ MAC  --- 0 ACK 38 [0 0 0 0] 
s 0.861922741 _1_ MAC  --- 0 RTS 44 [34a 0 1 0] 
r 0.862275241 _0_ MAC  --- 0 RTS 44 [34a 0 1 0] 
s 0.862285241 _0_ MAC  --- 0 CTS 38 [210 1 0 0] 
r 0.862589741 _1_ MAC  --- 0 CTS 38 [210 1 0 0] 
s 0.862599741 _1_ MAC  --- 0 AODV 102 [13a 0 1 800] ------- [1:255 0:255 30 0] [0x4 1 [1 10] 10.000000] (REPLY)
D 0.862803796 _0_ MAC  DUP 0 AODV 44 [13a 0 1 800] ------- [1:255 0:255 30 0] [0x4 1 [1 10] 10.000000] (REPLY)
s 0.862813796 _0_ MAC  --- 0 ACK 38 [0 1 0 0] 
r 0.863118296 _1_ MAC  --- 0 ACK 38 [0 1 0 0] 
s 0.863388296 _1_ MAC  --- 0 RTS 44 [3dd 0 1 0] 
r 0.863740796 _0_ MAC  --- 0 RTS 44 [3dd 0 1 0] 
s 0.863750796 _0_ MAC  --- 0 CTS 38 [2a3 1 0 0] 
r 0.864055296 _1_ MAC  --- 0 CTS 38 [2a3 1 0 0] 
s 0.864065296 _1_ MAC  --- 11 tcp 1098 [13a 0 1 800] ------- [1:0 0:0 30 0] [3 0] 0 0
r 0.864416907 _0_ MAC  --- 11 tcp 1040 [13a 0 1 800] ------- [1:0 0:0 30 0] [3 0] 1 0
s 0.864426907 _0_ MAC  --- 0 ACK 38 [0 1 0 0] 
r 0.864441907 _0_ AGT  --- 11 tcp 1040 [13a 0 1 800] ------- [1:0 0:0 30 0] [3 0] 1 0
s 0.864441907 _0_ AGT  --- 13 ack 40 [0 0 0 0] ------- [0:0 1:0 32 0] [3 0] 0 0
r 0.864441907 _0_ RTR  --- 13 ack 40 [0 0 0 0] ------- [0:0 1:0 32 0] [3 0] 0 0
s 0.864441907 _0_ RTR  --- 13 ack 40 [0 0 0 0] ------- [0:0 1:0 30 1] [3 0] 0 0
r 0.864731407 _1_ MAC  --- 0 ACK 38 [0 1 0 0] 
s 0.864860907 _0_ MAC  --- 0 RTS 44 [349 1 0 0] 
r 0.865213407 _1_ MAC  --- 0 RTS 44 [349 1 0 0] 
s 0.865223407 _1_ MAC  --- 0 CTS 38 [20f 0 0 0] 
r 0.865527907 _0_ MAC  --- 0 CTS 38 [20f 0 0 0] 
s 0.865537907 _0_ MAC  --- 13 ack 98 [13a 1 0 800] ------- [0:0 1:0 30 1] [3 0] 0 0
r 0.865741370 _1_ MAC  --- 13 ack 40 [13a 1 0 800] ------- [0:0 1:0 30 1] [3 0] 1 0
s 0.865751370 _1_ MAC  --- 0 ACK 38 [0 0 0 0] 
r 0.865766370 _1_ AGT  --- 13 ack 40 [13a 1 0 800] ------- [0:0 1:0 30 1] [3 0] 1 0
s 0.865766370 _1_ AGT  --- 14 tcp 1040 [0 0 0 0] ------- [1:0 0:0 32 0] [5 0] 0 0
r 0.865766370 _1_ RTR  --- 14 tcp 1040 [0 0 0 0] ------- [1:0 0:0 32 0] [5 0] 0 0
s 0.865766370 _1_ RTR  --- 14 tcp 1040 [0 0 0 0] ------- [1:0 0:0 30 0] [5 0] 0 0
r 0.866055870 _0_ MAC  --- 0 ACK 38 [0 0 0 0] 
s 0.866345370 _1_ MAC  --- 0 RTS 44 [3dd 0 1 0] 
r 0.866697870 _0_ MAC  --- 0 RTS 44 [3dd 0 1 0] 
s 0.866707870 _0_ MAC  --- 0 CTS 38 [2a3 1 0 0] 
r 0.867012370 _1_ MAC  --- 0 CTS 38 [2a3 1 0 0] 
s 0.867022370 _1_ MAC  --- 12 tcp 1098 [13a 0 1 800] ------- [1:0 0:0 30 0] [4 0] 0 0
r 0.867373981 _0_ MAC  --- 12 tcp 1040 [13a 0 1 800] ------- [1:0 0:0 30 0] [4 0] 1 0
s 0.867383981 _0_ MAC  --- 0 ACK 38 [0 1 0 0] 
r 0.867398981 _0_ AGT  --- 12 tcp 1040 [13a 0 1 800] ------- [1:0 0:0 30 0] [4 0] 1 0
s 0.867398981 _0_ AGT  --- 15 ack 40 [0 0 0 0] ------- [0:0 1:0 32 0] [4 0] 0 0
r 0.867398981 _0_ RTR  --- 15 ack 40 [0 0 0 0] ------- [0:0 1:0 32 0] [4 0] 0 0
s 0.867398981 _0_ RTR  --- 15 ack 40 [0 0 0 0] ------- [0:0 1:0 30 1] [4 0] 0 0
r 0.867688481 _1_ MAC  --- 0 ACK 38 [0 1 0 0] 
s 0.867977981 _0_ MAC  --- 0 RTS 44 [349 1 0 0] 
r 0.868330481 _1_ MAC  --- 0 RTS 44 [349 1 0 0] 
s 0.868340481 _1_ MAC  --- 0 CTS 38 [20f 0 0 0] 
s 0.868971481 _1_ MAC  --- 0 RTS 44 [3dd 0 1 0] 
r 0.869323981 _0_ MAC  --- 0 RTS 44 [3dd 0 1 0] 
s 0.869333981 _0_ MAC  --- 0 CTS 38 [2a3 1 0 0] 
r 0.869638481 _1_ MAC  --- 0 CTS 38 [2a3 1 0 0] 
s 0.869648481 _1_ MAC  --- 14 tcp 1098 [13a 0 1 800] ------- [1:0 0:0 30 0] [5 0] 0 0
s 0.870494093 _0_ MAC  --- 0 RTS 44 [349 1 0 0] 
r 0.870846593 _1_ MAC  --- 0 RTS 44 [349 1 0 0] 
s 0.870856593 _1_ MAC  --- 0 CTS 38 [20f 0 0 0] 
r 0.871161093 _0_ MAC  --- 0 CTS 38 [20f 0 0 0] 
s 0.871171093 _0_ MAC  --- 15 ack 98 [13a 1 0 800] ------- [0:0 1:0 30 1] [4 0] 0 0
s 0.872308556 _1_ MAC  --- 0 RTS 44 [3dd 0 1 0] 
r 0.872661056 _0_ MAC  --- 0 RTS 44 [3dd 0 1 0] 
s 0.872671056 _0_ MAC  --- 0 CTS 38 [2a3 1 0 0] 
r 0.872975556 _1_ MAC  --- 0 CTS 38 [2a3 1 0 0] 
s 0.872985556 _1_ MAC  --- 14 tcp 1098 [13a 0 1 800] ------- [1:0 0:0 30 0] [5 0] 0 0
s 0.874651167 _0_ MAC  --- 0 RTS 44 [349 1 0 0] 
r 0.875003667 _1_ MAC  --- 0 RTS 44 [349 1 0 0] 
s 0.875013667 _1_ MAC  --- 0 CTS 38 [20f 0 0 0] 
r 0.875318167 _0_ MAC  --- 0 CTS 38 [20f 0 0 0] 
s 0.875328167 _0_ MAC  --- 15 ack 98 [13a 1 0 800] ------- [0:0 1:0 30 1] [4 0] 0 0
s 0.876065630 _1_ MAC  --- 0 RTS 44 [3dd 0 1 0] 
r 0.876418130 _0_ MAC  --- 0 RTS 44 [3dd 0 1 0] 
s 0.876428130 _0_ MAC  --- 0 CTS 38 [2a3 1 0 0] 
r 0.876732630 _1_ MAC  --- 0 CTS 38 [2a3 1 0 0] 
s 0.876742630 _1_ MAC  --- 14 tcp 1098 [13a 0 1 800] ------- [1:0 0:0 30 0] [5 0] 0 0
r 0.877094241 _0_ MAC  --- 14 tcp 1040 [13a 0 1 800] ------- [1:0 0:0 30 0] [5 0] 1 0
s 0.877104241 _0_ MAC  --- 0 ACK 38 [0 1 0 0] 
r 0.877119241 _0_ AGT  --- 14 tcp 1040 [13a 0 1 800] ------- [1:0 0:0 30 0] [5 0] 1 0
s 0.877119241 _0_ AGT  --- 16 ack 40 [0 0 0 0] ------- [0:0 1:0 32 0] [5 0] 0 0
r 0.877119241 _0_ RTR  --- 16 ack 40 [0 0 0 0] ------- [0:0 1:0 32 0] [5 0] 0 0
s 0.877119241 _0_ RTR  --- 16 ack 40 [0 0 0 0] ------- [0:0 1:0 30 1] [5 0] 0 0
r 0.877408741 _1_ MAC  --- 0 ACK 38 [0 1 0 0] 
s 0.881458241 _0_ MAC  --- 0 RTS 44 [349 1 0 0] 
s 0.885998241 _0_ MAC  --- 0 RTS 44 [349 1 0 0] 
s 0.889658241 _0_ MAC  --- 0 RTS 44 [349 1 0 0] 
r 0.890010741 _1_ MAC  --- 0 RTS 44 [349 1 0 0] 
s 0.890020741 _1_ MAC  --- 0 CTS 38 [20f 0 0 0] 
r 0.890325241 _0_ MAC  --- 0 CTS 38 [20f 0 0 0] 
s 0.890335241 _0_ MAC  --- 15 ack 98 [13a 1 0 800] ------- [0:0 1:0 30 1] [4 0] 0 0
s 0.894126204 _0_ MAC  --- 0 RTS 44 [349 1 0 0] 
r 0.894478704 _1_ MAC  --- 0 RTS 44 [349 1 0 0] 
s 0.894488704 _1_ MAC  --- 0 CTS 38 [20f 0 0 0] 
r 0.894793204 _0_ MAC  --- 0 CTS 38 [20f 0 0 0] 
s 0.894803204 _0_ MAC  --- 15 ack 98 [13a 1 0 800] ------- [0:0 1:0 30 1] [4 0] 0 0
r 0.895006667 _1_ MAC  --- 15 ack 40 [13a 1 0 800] ------- [0:0 1:0 30 1] [4 0] 1 0
s 0.895016667 _1_ MAC  --- 0 ACK 38 [0 0 0 0] 
r 0.895031667 _1_ AGT  --- 15 ack 40 [13a 1 0 800] ------- [0:0 1:0 30 1] [4 0] 1 0
s 0.895031667 _1_ AGT  --- 17 tcp 1040 [0 0 0 0] ------- [1:0 0:0 32 0] [6 0] 0 0
r 0.895031667 _1_ RTR  --- 17 tcp 1040 [0 0 0 0] ------- [1:0 0:0 32 0] [6 0] 0 0
s 0.895031667 _1_ RTR  --- 17 tcp 1040 [0 0 0 0] ------- [1:0 0:0 30 0] [6 0] 0 0
r 0.895321167 _0_ MAC  --- 0 ACK 38 [0 0 0 0] 
s 0.895471167 _0_ MAC  --- 0 RTS 44 [349 1 0 0] 
r 0.895823667 _1_ MAC  --- 0 RTS 44 [349 1 0 0] 
s 0.895833667 _1_ MAC  --- 0 CTS 38 [20f 0 0 0] 
s 0.896504667 _1_ MAC  --- 0 RTS 44 [3dd 0 1 0] 
r 0.896857167 _0_ MAC  --- 0 RTS 44 [3dd 0 1 0] 
s 0.896867167 _0_ MAC  --- 0 CTS 38 [2a3 1 0 0] 
r 0.897171667 _1_ MAC  --- 0 CTS 38 [2a3 1 0 0] 
s 0.897181667 _1_ MAC  --- 17 tcp 1098 [13a 0 1 800] ------- [1:0 0:0 30 0] [6 0] 0 0
r 0.897533278 _0_ MAC  --- 17 tcp 1040 [13a 0 1 800] ------- [1:0 0:0 30 0] [6 0] 1 0
s 0.897543278 _0_ MAC  --- 0 ACK 38 [0 1 0 0] 
r 0.897558278 _0_ AGT  --- 17 tcp 1040 [13a 0 1 800] ------- [1:0 0:0 30 0] [6 0] 1 0
s 0.897558278 _0_ AGT  --- 18 ack 40 [0 0 0 0] ------- [0:0 1:0 32 0] [6 0] 0 0
r 0.897558278 _0_ RTR  --- 18 ack 40 [0 0 0 0] ------- [0:0 1:0 32 0] [6 0] 0 0
s 0.897558278 _0_ RTR  --- 18 ack 40 [0 0 0 0] ------- [0:0 1:0 30 1] [6 0] 0 0
s 0.898341778 _1_ MAC  --- 0 RTS 44 [3dd 0 1 0] 
s 0.899388278 _0_ MAC  --- 0 RTS 44 [349 1 0 0] 
r 0.899740778 _1_ MAC  --- 0 RTS 44 [349 1 0 0] 
s 0.899750778 _1_ MAC  --- 0 CTS 38 [20f 0 0 0] 
r 0.900055278 _0_ MAC  --- 0 CTS 38 [20f 0 0 0] 
s 0.900065278 _0_ MAC  --- 16 ack 98 [13a 1 0 800] ------- [0:0 1:0 30 1] [5 0] 0 0
r 0.900268741 _1_ MAC  --- 16 ack 40 [13a 1 0 800] ------- [0:0 1:0 30 1] [5 0] 1 0
s 0.900278741 _1_ MAC  --- 0 ACK 38 [0 0 0 0] 
r 0.900293741 _1_ AGT  --- 16 ack 40 [13a 1 0 800] ------- [0:0 1:0 30 1] [5 0] 1 0
s 0.900293741 _1_ AGT  --- 19 tcp 1040 [0 0 0 0] ------- [1:0 0:0 32 0] [7 0] 0 0
r 0.900293741 _1_ RTR  --- 19 tcp 1040 [0 0 0 0] ------- [1:0 0:0 32 0] [7 0] 0 0
s 0.900293741 _1_ AGT  --- 20 tcp 1040 [0 0 0 0] ------- [1:0 0:0 32 0] [8 0] 0 0
r 0.900293741 _1_ RTR  --- 20 tcp 1040 [0 0 0 0] ------- [1:0 0:0 32 0] [8 0] 0 0
s 0.900293741 _1_ RTR  --- 19 tcp 1040 [0 0 0 0] ------- [1:0 0:0 30 0] [7 0] 0 0
s 0.900293741 _1_ RTR  --- 20 tcp 1040 [0 0 0 0] ------- [1:0 0:0 30 0] [8 0] 0 0
r 0.900583241 _0_ MAC  --- 0 ACK 38 [0 0 0 0] 
s 0.900693241 _0_ MAC  --- 0 RTS 44 [349 1 0 0] 
r 0.901045741 _1_ MAC  --- 0 RTS 44 [349 1 0 0] 
s 0.901055741 _1_ MAC  --- 0 CTS 38 [20f 0 0 0] 
r 0.901360241 _0_ MAC  --- 0 CTS 38 [20f 0 0 0] 
s 0.901370241 _0_ MAC  --- 18 ack 98 [13a 1 0 800] ------- [0:0 1:0 30 1] [6 0] 0 0
r 0.901573704 _1_ MAC  --- 18 ack 40 [13a 1 0 800] ------- [0:0 1:0 30 1] [6 0] 1 0
s 0.901583704 _1_ MAC  --- 0 ACK 38 [0 0 0 0] 
r 0.901598704 _1_ AGT  --- 18 ack 40 [13a 1 0 800] ------- [0:0 1:0 30 1] [6 0] 1 0
s 0.901598704 _1_ AGT  --- 21 tcp 1040 [0 0 0 0] ------- [1:0 0:0 32 0] [9 0] 0 0
r 0.901598704 _1_ RTR  --- 21 tcp 1040 [0 0 0 0] ------- [1:0 0:0 32 0] [9 0] 0 0
s 0.901598704 _1_ RTR  --- 21 tcp 1040 [0 0 0 0] ------- [1:0 0:0 30 0] [9 0] 0 0
r 0.901888204 _0_ MAC  --- 0 ACK 38 [0 0 0 0] 
s 0.903757704 _1_ MAC  --- 0 RTS 44 [3dd 0 1 0] 
s 0.908477704 _1_ MAC  --- 0 RTS 44 [3dd 0 1 0] 
s 0.916837704 _1_ MAC  --- 0 RTS 44 [3dd 0 1 0] 
r 0.917190204 _0_ MAC  --- 0 RTS 44 [3dd 0 1 0] 
s 0.917200204 _0_ MAC  --- 0 CTS 38 [2a3 1 0 0] 
r 0.917504704 _1_ MAC  --- 0 CTS 38 [2a3 1 0 0] 
s 0.917514704 _1_ MAC  --- 17 tcp 1098 [13a 0 1 800] ------- [1:0 0:0 30 0] [6 0] 0 0
D 0.917866315 _0_ MAC  DUP 17 tcp 1040 [13a 0 1 800] ------- [1:0 0:0 30 0] [6 0] 1 0
s 0.917876315 _0_ MAC  --- 0 ACK 38 [0 1 0 0] 
r 0.918180815 _1_ MAC  --- 0 ACK 38 [0 1 0 0] 
s 0.918290815 _1_ MAC  --- 0 RTS 44 [3dd 0 1 0] 
r 0.918643315 _0_ MAC  --- 0 RTS 44 [3dd 0 1 0] 
s 0.918653315 _0_ MAC  --- 0 CTS 38 [2a3 1 0 0] 
r 0.918957815 _1_ MAC  --- 0 CTS 38 [2a3 1 0 0] 
s 0.918967815 _1_ MAC  --- 19 tcp 1098 [13a 0 1 800] ------- [1:0 0:0 30 0] [7 0] 0 0
r 0.919319426 _0_ MAC  --- 19 tcp 1040 [13a 0 1 800] ------- [1:0 0:0 30 0] [7 0] 1 0
s 0.919329426 _0_ MAC  --- 0 ACK 38 [0 1 0 0] 
r 0.919344426 _0_ AGT  --- 19 tcp 1040 [13a 0 1 800] ------- [1:0 0:0 30 0] [7 0] 1 0
s 0.919344426 _0_ AGT  --- 22 ack 40 [0 0 0 0] ------- [0:0 1:0 32 0] [7 0] 0 0
r 0.919344426 _0_ RTR  --- 22 ack 40 [0 0 0 0] ------- [0:0 1:0 32 0] [7 0] 0 0
s 0.919344426 _0_ RTR  --- 22 ack 40 [0 0 0 0] ------- [0:0 1:0 30 1] [7 0] 0 0
r 0.919633926 _1_ MAC  --- 0 ACK 38 [0 1 0 0] 
s 0.919803926 _1_ MAC  --- 0 RTS 44 [3dd 0 1 0] 
r 0.920156426 _0_ MAC  --- 0 RTS 44 [3dd 0 1 0] 
s 0.920166426 _0_ MAC  --- 0 CTS 38 [2a3 1 0 0] 
r 0.920470926 _1_ MAC  --- 0 CTS 38 [2a3 1 0 0] 
s 0.920480926 _1_ MAC  --- 20 tcp 1098 [13a 0 1 800] ------- [1:0 0:0 30 0] [8 0] 0 0
r 0.920832537 _0_ MAC  --- 20 tcp 1040 [13a 0 1 800] ------- [1:0 0:0 30 0] [8 0] 1 0
s 0.920842537 _0_ MAC  --- 0 ACK 38 [0 1 0 0] 
r 0.920857537 _0_ AGT  --- 20 tcp 1040 [13a 0 1 800] ------- [1:0 0:0 30 0] [8 0] 1 0
s 0.920857537 _0_ AGT  --- 23 ack 40 [0 0 0 0] ------- [0:0 1:0 32 0] [8 0] 0 0
r 0.920857537 _0_ RTR  --- 23 ack 40 [0 0 0 0] ------- [0:0 1:0 32 0] [8 0] 0 0
s 0.920857537 _0_ RTR  --- 23 ack 40 [0 0 0 0] ------- [0:0 1:0 30 1] [8 0] 0 0
r 0.921147037 _1_ MAC  --- 0 ACK 38 [0 1 0 0] 
s 0.921656537 _0_ MAC  --- 0 RTS 44 [349 1 0 0] 
s 0.922563037 _1_ MAC  --- 0 RTS 44 [3dd 0 1 0] 
r 0.922915537 _0_ MAC  --- 0 RTS 44 [3dd 0 1 0] 
s 0.922925537 _0_ MAC  --- 0 CTS 38 [2a3 1 0 0] 
r 0.923230037 _1_ MAC  --- 0 CTS 38 [2a3 1 0 0] 
s 0.923240037 _1_ MAC  --- 21 tcp 1098 [13a 0 1 800] ------- [1:0 0:0 30 0] [9 0] 0 0
r 0.923591648 _0_ MAC  --- 21 tcp 1040 [13a 0 1 800] ------- [1:0 0:0 30 0] [9 0] 1 0
s 0.923601648 _0_ MAC  --- 0 ACK 38 [0 1 0 0] 
r 0.923616648 _0_ AGT  --- 21 tcp 1040 [13a 0 1 800] ------- [1:0 0:0 30 0] [9 0] 1 0
s 0.923616648 _0_ AGT  --- 24 ack 40 [0 0 0 0] ------- [0:0 1:0 32 0] [9 0] 0 0
r 0.923616648 _0_ RTR  --- 24 ack 40 [0 0 0 0] ------- [0:0 1:0 32 0] [9 0] 0 0
s 0.923616648 _0_ RTR  --- 24 ack 40 [0 0 0 0] ------- [0:0 1:0 30 1] [9 0] 0 0
r 0.923906148 _1_ MAC  --- 0 ACK 38 [0 1 0 0] 
s 0.924435648 _0_ MAC  --- 0 RTS 44 [349 1 0 0] 
r 0.924788148 _1_ MAC  --- 0 RTS 44 [349 1 0 0] 
s 0.924798148 _1_ MAC  --- 0 CTS 38 [20f 0 0 0] 
s 0.925576648 _0_ MAC  --- 0 RTS 44 [349 1 0 0] 
r 0.925929148 _1_ MAC  --- 0 RTS 44 [349 1 0 0] 
s 0.925939148 _1_ MAC  --- 0 CTS 38 [20f 0 0 0] 
s 0.927917648 _0_ MAC  --- 0 RTS 44 [349 1 0 0] 
r 0.928270148 _1_ MAC  --- 0 RTS 44 [349 1 0 0] 
s 0.928280148 _1_ MAC  --- 0 CTS 38 [20f 0 0 0] 
s 0.933178648 _0_ MAC  --- 0 RTS 44 [349 1 0 0] 
r 0.933531148 _1_ MAC  --- 0 RTS 44 [349 1 0 0] 
s 0.933541148 _1_ MAC  --- 0 CTS 38 [20f 0 0 0] 
s 0.945139648 _0_ MAC  --- 0 RTS 44 [349 1 0 0] 
r 0.945492148 _1_ MAC  --- 0 RTS 44 [349 1 0 0] 
s 0.945502148 _1_ MAC  --- 0 CTS 38 [20f 0 0 0] 
r 0.945806648 _0_ MAC  --- 0 CTS 38 [20f 0 0 0] 
s 0.945816648 _0_ MAC  --- 22 ack 98 [13a 1 0 800] ------- [0:0 1:0 30 1] [7 0] 0 0
s 0.965647611 _0_ MAC  --- 0 RTS 44 [349 1 0 0] 
r 0.966000111 _1_ MAC  --- 0 RTS 44 [349 1 0 0] 
s 0.966010111 _1_ MAC  --- 0 CTS 38 [20f 0 0 0] 
s 0.974387611 _0_ MAC  --- 0 RTS 44 [349 1 0 0] 
r 0.974740111 _1_ MAC  --- 0 RTS 44 [349 1 0 0] 
s 0.974750111 _1_ MAC  --- 0 CTS 38 [20f 0 0 0] 
s 0.979408611 _0_ MAC  --- 0 RTS 44 [349 1 0 0] 
r 0.979761111 _1_ MAC  --- 0 RTS 44 [349 1 0 0] 
s 0.979771111 _1_ MAC  --- 0 CTS 38 [20f 0 0 0] 
r 0.980075611 _0_ MAC  --- 0 CTS 38 [20f 0 0 0] 
s 0.980085611 _0_ MAC  --- 22 ack 98 [13a 1 0 800] ------- [0:0 1:0 30 1] [7 0] 0 0
r 0.980289074 _1_ MAC  --- 22 ack 40 [13a 1 0 800] ------- [0:0 1:0 30 1] [7 0] 1 0
s 0.980299074 _1_ MAC  --- 0 ACK 38 [0 0 0 0] 
r 0.980314074 _1_ AGT  --- 22 ack 40 [13a 1 0 800] ------- [0:0 1:0 30 1] [7 0] 1 0
s 0.980314074 _1_ AGT  --- 25 tcp 1040 [0 0 0 0] ------- [1:0 0:0 32 0] [10 0] 0 0
r 0.980314074 _1_ RTR  --- 25 tcp 1040 [0 0 0 0] ------- [1:0 0:0 32 0] [10 0] 0 0
s 0.980314074 _1_ RTR  --- 25 tcp 1040 [0 0 0 0] ------- [1:0 0:0 30 0] [10 0] 0 0
r 0.980603574 _0_ MAC  --- 0 ACK 38 [0 0 0 0] 
s 0.980813574 _0_ MAC  --- 0 RTS 44 [349 1 0 0] 
r 0.981166074 _1_ MAC  --- 0 RTS 44 [349 1 0 0] 
s 0.981176074 _1_ MAC  --- 0 CTS 38 [20f 0 0 0] 
r 0.981480574 _0_ MAC  --- 0 CTS 38 [20f 0 0 0] 
s 0.981490574 _0_ MAC  --- 23 ack 98 [13a 1 0 800] ------- [0:0 1:0 30 1] [8 0] 0 0
r 0.981694037 _1_ MAC  --- 23 ack 40 [13a 1 0 800] ------- [0:0 1:0 30 1] [8 0] 1 0
s 0.981704037 _1_ MAC  --- 0 ACK 38 [0 0 0 0] 
r 0.981719037 _1_ AGT  --- 23 ack 40 [13a 1 0 800] ------- [0:0 1:0 30 1] [8 0] 1 0
s 0.981719037 _1_ AGT  --- 26 tcp 1040 [0 0 0 0] ------- [1:0 0:0 32 0] [11 0] 0 0
r 0.981719037 _1_ RTR  --- 26 tcp 1040 [0 0 0 0] ------- [1:0 0:0 32 0] [11 0] 0 0