M 0.00000 1 (300.00, 500.00, 0.00), (414.00, 676.00), 1000.00
M 0.10000 0 (258.00, 500.00, 0.00), (250.00, 500.00), 1000.00
s 0.200000000 _1_ AGT  --- 0 tcp 40 [0 0 0 0] ------- [1:0 0:0 32 0] [0 0] 0 0
r 0.200000000 _1_ RTR  --- 0 tcp 40 [0 0 0 0] ------- [1:0 0:0 32 0] [0 0] 0 0
s 0.200000000 _1_ RTR  --- 0 AODV 48 [0 0 0 0] ------- [1:255 -1:255 30 0] [0x2 1 1 [0 0] [1 4]] (REQUEST)
s 0.200115000 _1_ MAC  --- 0 AODV 106 [0 ffffffff 1 800] ------- [1:255 -1:255 30 0] [0x2 1 1 [0 0] [1 4]] (REQUEST)
r 0.200963770 _0_ MAC  --- 0 AODV 48 [0 ffffffff 1 800] ------- [1:255 -1:255 30 0] [0x2 1 1 [0 0] [1 4]] (REQUEST)
r 0.200988770 _0_ RTR  --- 0 AODV 48 [0 ffffffff 1 800] ------- [1:255 -1:255 30 0] [0x2 1 1 [0 0] [1 4]] (REQUEST)
s 0.200988770 _0_ RTR  --- 0 AODV 44 [0 0 0 0] ------- [0:255 1:255 30 1] [0x4 1 [0 4] 10.000000] (REPLY)
s 0.201343770 _0_ MAC  --- 0 ARP 86 [0 ffffffff 0 806] ------- [REQUEST 0/0 0/1]
M 1.00000 1 (414.00, 676.00, 0.00), (115.00, 688.00), 1000.00
M 2.00000 1 (115.00, 688.00, 0.00), (214.00, 516.00), 1000.00
s 2.000000000 _1_ RTR  --- 0 AODV 48 [0 0 0 0] ------- [1:255 -1:255 30 0] [0x2 1 2 [0 0] [1 6]] (REQUEST)
s 2.000075000 _1_ MAC  --- 0 AODV 106 [0 ffffffff 1 800] ------- [1:255 -1:255 30 0] [0x2 1 2 [0 0] [1 6]] (REQUEST)
r 2.000923771 _0_ MAC  --- 0 AODV 48 [0 ffffffff 1 800] ------- [1:255 -1:255 30 0] [0x2 1 2 [0 0] [1 6]] (REQUEST)
r 2.000948771 _0_ RTR  --- 0 AODV 48 [0 ffffffff 1 800] ------- [1:255 -1:255 30 0] [0x2 1 2 [0 0] [1 6]] (REQUEST)
s 2.000948771 _0_ RTR  --- 0 AODV 44 [0 0 0 0] ------- [0:255 1:255 30 1] [0x4 1 [0 6] 10.000000] (REPLY)
D 2.000948771 _0_ IFQ  ARP 0 AODV 44 [0 0 0 800] ------- [0:255 1:255 30 1] [0x4 1 [0 4] 10.000000] (REPLY)
s 2.001203771 _0_ MAC  --- 0 ARP 86 [0 ffffffff 0 806] ------- [REQUEST 0/0 0/1]
M 3.00000 1 (214.00, 516.00, 0.00), (330.00, 556.00), 1000.00
s 3.200000000 _1_ AGT  --- 1 tcp 40 [0 0 0 0] ------- [1:0 0:0 32 0] [0 0] 0 0
r 3.200000000 _1_ RTR  --- 1 tcp 40 [0 0 0 0] ------- [1:0 0:0 32 0] [0 0] 0 0
M 4.00000 1 (330.00, 556.00, 0.00), (88.00, 653.00), 1000.00
M 5.00000 1 (88.00, 653.00, 0.00), (130.00, 564.00), 1000.00
M 6.00000 1 (130.00, 564.00, 0.00), (255.00, 387.00), 1000.00
s 6.000000000 _1_ RTR  --- 0 AODV 48 [0 0 0 0] ------- [1:255 -1:255 30 0] [0x2 1 3 [0 0] [1 8]] (REQUEST)
s 6.000435000 _1_ MAC  --- 0 AODV 106 [0 ffffffff 1 800] ------- [1:255 -1:255 30 0] [0x2 1 3 [0 0] [1 8]] (REQUEST)
r 6.001283452 _0_ MAC  --- 0 AODV 48 [0 ffffffff 1 800] ------- [1:255 -1:255 30 0] [0x2 1 3 [0 0] [1 8]] (REQUEST)
r 6.001308452 _0_ RTR  --- 0 AODV 48 [0 ffffffff 1 800] ------- [1:255 -1:255 30 0] [0x2 1 3 [0 0] [1 8]] (REQUEST)
s 6.001308452 _0_ RTR  --- 0 AODV 44 [0 0 0 0] ------- [0:255 1:255 30 1] [0x4 1 [0 8] 10.000000] (REPLY)
D 6.001308452 _0_ IFQ  ARP 0 AODV 44 [0 0 0 800] ------- [0:255 1:255 30 1] [0x4 1 [0 6] 10.000000] (REPLY)
s 6.001603452 _0_ MAC  --- 0 ARP 86 [0 ffffffff 0 806] ------- [REQUEST 0/0 0/1]
r 6.002291901 _1_ MAC  --- 0 ARP 28 [0 ffffffff 0 806] ------- [REQUEST 0/0 0/1]
s 6.002886901 _1_ MAC  --- 0 RTS 44 [347 0 1 0] 
r 6.003239345 _0_ MAC  --- 0 RTS 44 [347 0 1 0] 
s 6.003249345 _0_ MAC  --- 0 CTS 38 [20d 1 0 0] 
r 6.003553789 _1_ MAC  --- 0 CTS 38 [20d 1 0 0] 
s 6.003563789 _1_ MAC  --- 0 ARP 86 [13a 0 1 806] ------- [REPLY 1/1 0/0]
s 6.004372974 _1_ MAC  --- 0 RTS 44 [347 0 1 0] 
r 6.004725415 _0_ MAC  --- 0 RTS 44 [347 0 1 0] 
s 6.004735415 _0_ MAC  --- 0 CTS 38 [20d 1 0 0] 
r 6.005039854 _1_ MAC  --- 0 CTS 38 [20d 1 0 0] 
s 6.005049854 _1_ MAC  --- 0 ARP 86 [13a 0 1 806] ------- [REPLY 1/1 0/0]
s 6.005859039 _1_ MAC  --- 0 RTS 44 [347 0 1 0] 
r 6.006211475 _0_ MAC  --- 0 RTS 44 [347 0 1 0] 
s 6.006221475 _0_ MAC  --- 0 CTS 38 [20d 1 0 0] 
s 6.010359910 _1_ MAC  --- 0 RTS 44 [347 0 1 0] 
r 6.010712333 _0_ MAC  --- 0 RTS 44 [347 0 1 0] 
s 6.010722333 _0_ MAC  --- 0 CTS 38 [20d 1 0 0] 
r 6.011026754 _1_ MAC  --- 0 CTS 38 [20d 1 0 0] 
s 6.011036754 _1_ MAC  --- 0 ARP 86 [13a 0 1 806] ------- [REPLY 1/1 0/0]
r 6.011238360 _0_ MAC  --- 0 ARP 28 [13a 0 1 806] ------- [REPLY 1/1 0/0]
s 6.011248360 _0_ MAC  --- 0 ACK 38 [0 1 0 0] 
s 6.011762360 _0_ MAC  --- 0 RTS 44 [34a 1 0 0] 
r 6.012114779 _1_ MAC  --- 0 RTS 44 [34a 1 0 0] 
s 6.012124779 _1_ MAC  --- 0 CTS 38 [210 0 0 0] 
s 6.012943197 _0_ MAC  --- 0 RTS 44 [34a 1 0 0] 
r 6.013295612 _1_ MAC  --- 0 RTS 44 [34a 1 0 0] 
s 6.013305612 _1_ MAC  --- 0 CTS 38 [210 0 0 0] 
s 6.014304026 _0_ MAC  --- 0 RTS 44 [34a 1 0 0] 
r 6.014656437 _1_ MAC  --- 0 RTS 44 [34a 1 0 0] 
s 6.014666437 _1_ MAC  --- 0 CTS 38 [210 0 0 0] 
s 6.015964848 _0_ MAC  --- 0 RTS 44 [34a 1 0 0] 
s 6.017211254 _1_ MAC  --- 0 RTS 44 [347 0 1 0] 
r 6.017563657 _0_ MAC  --- 0 RTS 44 [347 0 1 0] 
s 6.017573657 _0_ MAC  --- 0 CTS 38 [20d 1 0 0] 
r 6.017878059 _1_ MAC  --- 0 CTS 38 [20d 1 0 0] 
s 6.017888059 _1_ MAC  --- 0 ARP 86 [13a 0 1 806] ------- [REPLY 1/1 0/0]
D 6.018089645 _0_ MAC  DUP 0 ARP 28 [13a 0 1 806] ------- [REPLY 1/1 0/0]
s 6.018099645 _0_ MAC  --- 0 ACK 38 [0 1 0 0] 
r 6.018404045 _1_ MAC  --- 0 ACK 38 [0 1 0 0] 
s 6.025173645 _0_ MAC  --- 0 RTS 44 [34a 1 0 0] 
s 6.037913645 _0_ MAC  --- 0 RTS 44 [34a 1 0 0] 
r 6.038265990 _1_ MAC  --- 0 RTS 44 [34a 1 0 0] 
s 6.038275990 _1_ MAC  --- 0 CTS 38 [210 0 0 0] 
s 6.049354334 _0_ MAC  --- 0 RTS 44 [34a 1 0 0] 
r 6.049706649 _1_ MAC  --- 0 RTS 44 [34a 1 0 0] 
s 6.049716649 _1_ MAC  --- 0 CTS 38 [210 0 0 0] 
r 6.050020964 _0_ MAC  --- 0 CTS 38 [210 0 0 0] 
s 6.050030964 _0_ MAC  --- 0 AODV 102 [13a 1 0 800] ------- [0:255 1:255 30 1] [0x4 1 [0 8] 10.000000] (REPLY)
r 6.050234833 _1_ MAC  --- 0 AODV 44 [13a 1 0 800] ------- [0:255 1:255 30 1] [0x4 1 [0 8] 10.000000] (REPLY)
s 6.050244833 _1_ MAC  --- 0 ACK 38 [0 0 0 0] 
r 6.050259833 _1_ RTR  --- 0 AODV 44 [13a 1 0 800] ------- [0:255 1:255 30 1] [0x4 1 [0 8] 10.000000] (REPLY)
s 6.050259833 _1_ RTR  --- 0 tcp 40 [0 0 0 0] ------- [1:0 0:0 30 0] [0 0] 0 0
r 6.050549146 _0_ MAC  --- 0 ACK 38 [0 0 0 0] 
s 6.050778833 _1_ MAC  --- 0 RTS 44 [349 0 1 0] 
r 6.051131144 _0_ MAC  --- 0 RTS 44 [349 0 1 0] 
s 6.051141144 _0_ MAC  --- 0 CTS 38 [20f 1 0 0] 
r 6.051445455 _1_ MAC  --- 0 CTS 38 [20f 1 0 0] 
s 6.051455455 _1_ MAC  --- 0 tcp 98 [13a 0 1 800] ------- [1:0 0:0 30 0] [0 0] 0 0
r 6.051658728 _0_ MAC  --- 0 tcp 40 [13a 0 1 800] ------- [1:0 0:0 30 0] [0 0] 1 0
s 6.051668728 _0_ MAC  --- 0 ACK 38 [0 1 0 0] 
r 6.051683728 _0_ AGT  --- 0 tcp 40 [13a 0 1 800] ------- [1:0 0:0 30 0] [0 0] 1 0
s 6.051683728 _0_ AGT  --- 2 ack 40 [0 0 0 0] ------- [0:0 1:0 32 0] [0 0] 0 0
r 6.051683728 _0_ RTR  --- 2 ack 40 [0 0 0 0] ------- [0:0 1:0 32 0] [0 0] 0 0
s 6.051683728 _0_ RTR  --- 2 ack 40 [0 0 0 0] ------- [0:0 1:0 30 1] [0 0] 0 0
r 6.051973037 _1_ MAC  --- 0 ACK 38 [0 1 0 0] 
s 6.052442728 _0_ MAC  --- 0 RTS 44 [349 1 0 0] 
r 6.052795035 _1_ MAC  --- 0 RTS 44 [349 1 0 0] 
s 6.052805035 _1_ MAC  --- 0 CTS 38 [20f 0 0 0] 
r 6.053109341 _0_ MAC  --- 0 CTS 38 [20f 0 0 0] 
s 6.053119341 _0_ MAC  --- 2 ack 98 [13a 1 0 800] ------- [0:0 1:0 30 1] [0 0] 0 0
r 6.053322610 _1_ MAC  --- 2 ack 40 [13a 1 0 800] ------- [0:0 1:0 30 1] [0 0] 1 0
s 6.053332610 _1_ MAC  --- 0 ACK 38 [0 0 0 0] 
r 6.053347610 _1_ AGT  --- 2 ack 40 [13a 1 0 800] ------- [0:0 1:0 30 1] [0 0] 1 0
s 6.053347610 _1_ AGT  --- 3 tcp 1040 [0 0 0 0] ------- [1:0 0:0 32 0] [1 0] 0 0
r 6.053347610 _1_ RTR  --- 3 tcp 1040 [0 0 0 0] ------- [1:0 0:0 32 0] [1 0] 0 0
s 6.053347610 _1_ RTR  --- 3 tcp 1040 [0 0 0 0] ------- [1:0 0:0 30 0] [1 0] 0 0
s 6.054190915 _0_ MAC  --- 0 RTS 44 [349 1 0 0] 
r 6.054543218 _1_ MAC  --- 0 RTS 44 [349 1 0 0] 
s 6.054553218 _1_ MAC  --- 0 CTS 38 [20f 0 0 0] 
r 6.054857520 _0_ MAC  --- 0 CTS 38 [20f 0 0 0] 
s 6.054867520 _0_ MAC  --- 2 ack 98 [13a 1 0 800] ------- [0:0 1:0 30 1] [0 0] 0 0
D 6.055070785 _1_ MAC  DUP 2 ack 40 [13a 1 0 800] ------- [0:0 1:0 30 1] [0 0] 1 0
s 6.055080785 _1_ MAC  --- 0 ACK 38 [0 0 0 0] 
r 6.055385086 _0_ MAC  --- 0 ACK 38 [0 0 0 0] 
s 6.055474785 _1_ MAC  --- 0 RTS 44 [3dd 0 1 0] 
r 6.055827085 _0_ MAC  --- 0 RTS 44 [3dd 0 1 0] 
s 6.055837085 _0_ MAC  --- 0 CTS 38 [2a3 1 0 0] 
r 6.056141384 _1_ MAC  --- 0 CTS 38 [2a3 1 0 0] 
s 6.056151384 _1_ MAC  --- 3 tcp 1098 [13a 0 1 800] ------- [1:0 0:0 30 0] [1 0] 0 0
r 6.056502793 _0_ MAC  --- 3 tcp 1040 [13a 0 1 800] ------- [1:0 0:0 30 0] [1 0] 1 0
s 6.056512793 _0_ MAC  --- 0 ACK 38 [0 1 0 0] 
r 6.056527793 _0_ AGT  --- 3 tcp 1040 [13a 0 1 800] ------- [1:0 0:0 30 0] [1 0] 1 0
s 6.056527793 _0_ AGT  --- 4 ack 40 [0 0 0 0] ------- [0:0 1:0 32 0] [1 0] 0 0
r 6.056527793 _0_ RTR  --- 4 ack 40 [0 0 0 0] ------- [0:0 1:0 32 0] [1 0] 0 0
s 6.056527793 _0_ RTR  --- 4 ack 40 [0 0 0 0] ------- [0:0 1:0 30 1] [1 0] 0 0
r 6.056817090 _1_ MAC  --- 0 ACK 38 [0 1 0 0] 
s 6.056886793 _0_ MAC  --- 0 RTS 44 [349 1 0 0] 
r 6.057239089 _1_ MAC  --- 0 RTS 44 [349 1 0 0] 
s 6.057249089 _1_ MAC  --- 0 CTS 38 [20f 0 0 0] 
r 6.057553385 _0_ MAC  --- 0 CTS 38 [20f 0 0 0] 
s 6.057563385 _0_ MAC  --- 4 ack 98 [13a 1 0 800] ------- [0:0 1:0 30 1] [1 0] 0 0
r 6.057766643 _1_ MAC  --- 4 ack 40 [13a 1 0 800] ------- [0:0 1:0 30 1] [1 0] 1 0
s 6.057776643 _1_ MAC  --- 0 ACK 38 [0 0 0 0] 
r 6.057791643 _1_ AGT  --- 4 ack 40 [13a 1 0 800] ------- [0:0 1:0 30 1] [1 0] 1 0
s 6.057791643 _1_ AGT  --- 5 tcp 1040 [0 0 0 0] ------- [1:0 0:0 32 0] [2 0] 0 0
r 6.057791643 _1_ RTR  --- 5 tcp 1040 [0 0 0 0] ------- [1:0 0:0 32 0] [2 0] 0 0
s 6.057791643 _1_ AGT  --- 6 tcp 1040 [0 0 0 0] ------- [1:0 0:0 32 0] [3 0] 0 0
r 6.057791643 _1_ RTR  --- 6 tcp 1040 [0 0 0 0] ------- [1:0 0:0 32 0] [3 0] 0 0
s 6.057791643 _1_ RTR  --- 5 tcp 1040 [0 0 0 0] ------- [1:0 0:0 30 0] [2 0] 0 0
s 6.057791643 _1_ RTR  --- 6 tcp 1040 [0 0 0 0] ------- [1:0 0:0 30 0] [3 0] 0 0
r 6.058080937 _0_ MAC  --- 0 ACK 38 [0 0 0 0] 
s 6.058430643 _1_ MAC  --- 0 RTS 44 [3dd 0 1 0] 
s 6.059450643 _1_ MAC  --- 0 RTS 44 [3dd 0 1 0] 
r 6.059802933 _0_ MAC  --- 0 RTS 44 [3dd 0 1 0] 
s 6.059812933 _0_ MAC  --- 0 CTS 38 [2a3 1 0 0] 
r 6.060117222 _1_ MAC  --- 0 CTS 38 [2a3 1 0 0] 
s 6.060127222 _1_ MAC  --- 5 tcp 1098 [13a 0 1 800] ------- [1:0 0:0 30 0] [2 0] 0 0
s 6.060259833 _1_ RTR  --- 1 tcp 40 [0 0 0 0] ------- [1:0 0:0 30 0] [0 0] 0 0
s 6.063046334 _1_ MAC  --- 0 RTS 44 [3dd 0 1 0] 
r 6.063398615 _0_ MAC  --- 0 RTS 44 [3dd 0 1 0] 
s 6.063408615 _0_ MAC  --- 0 CTS 38 [2a3 1 0 0] 
s 6.066266896 _1_ MAC  --- 0 RTS 44 [3dd 0 1 0] 
s 6.066986896 _1_ MAC  --- 0 RTS 44 [3dd 0 1 0] 
r 6.067339169 _0_ MAC  --- 0 RTS 44 [3dd 0 1 0] 
s 6.067349169 _0_ MAC  --- 0 CTS 38 [2a3 1 0 0] 
r 6.067653442 _1_ MAC  --- 0 CTS 38 [2a3 1 0 0] 
s 6.067663442 _1_ MAC  --- 5 tcp 1098 [13a 0 1 800] ------- [1:0 0:0 30 0] [2 0] 0 0
r 6.068014824 _0_ MAC  --- 5 tcp 1040 [13a 0 1 800] ------- [1:0 0:0 30 0] [2 0] 1 0
s 6.068024824 _0_ MAC  --- 0 ACK 38 [0 1 0 0] 
r 6.068039824 _0_ AGT  --- 5 tcp 1040 [13a 0 1 800] ------- [1:0 0:0 30 0] [2 0] 1 0
s 6.068039824 _0_ AGT  --- 7 ack 40 [0 0 0 0] ------- [0:0 1:0 32 0] [2 0] 0 0
r 6.068039824 _0_ RTR  --- 7 ack 40 [0 0 0 0] ------- [0:0 1:0 32 0] [2 0] 0 0
s 6.068039824 _0_ RTR  --- 7 ack 40 [0 0 0 0] ------- [0:0 1:0 30 1] [2 0] 0 0
r 6.068329095 _1_ MAC  --- 0 ACK 38 [0 1 0 0] 
s 6.068478824 _0_ MAC  --- 0 RTS 44 [349 1 0 0] 
r 6.068831094 _1_ MAC  --- 0 RTS 44 [349 1 0 0] 
s 6.068841094 _1_ MAC  --- 0 CTS 38 [20f 0 0 0] 
r 6.069145363 _0_ MAC  --- 0 CTS 38 [20f 0 0 0] 
s 6.069155363 _0_ MAC  --- 7 ack 98 [13a 1 0 800] ------- [0:0 1:0 30 1] [2 0] 0 0
r 6.069358594 _1_ MAC  --- 7 ack 40 [13a 1 0 800] ------- [0:0 1:0 30 1] [2 0] 1 0
s 6.069368594 _1_ MAC  --- 0 ACK 38 [0 0 0 0] 
r 6.069383594 _1_ AGT  --- 7 ack 40 [13a 1 0 800] ------- [0:0 1:0 30 1] [2 0] 1 0
s 6.069383594 _1_ AGT  --- 8 tcp 1040 [0 0 0 0] ------- [1:0 0:0 32 0] [4 0] 0 0
r 6.069383594 _1_ RTR  --- 8 tcp 1040 [0 0 0 0] ------- [1:0 0:0 32 0] [4 0] 0 0
s 6.069383594 _1_ RTR  --- 8 tcp 1040 [0 0 0 0] ------- [1:0 0:0 30 0] [4 0] 0 0
r 6.069672861 _0_ MAC  --- 0 ACK 38 [0 0 0 0] 
s 6.070162594 _1_ MAC  --- 0 RTS 44 [3dd 0 1 0] 
r 6.070514860 _0_ MAC  --- 0 RTS 44 [3dd 0 1 0] 
s 6.070524860 _0_ MAC  --- 0 CTS 38 [2a3 1 0 0] 
r 6.070829125 _1_ MAC  --- 0 CTS 38 [2a3 1 0 0] 
s 6.070839125 _1_ MAC  --- 6 tcp 1098 [13a 0 1 800] ------- [1:0 0:0 30 0] [3 0] 0 0
r 6.071190501 _0_ MAC  --- 6 tcp 1040 [13a 0 1 800] ------- [1:0 0:0 30 0] [3 0] 1 0
s 6.071200501 _0_ MAC  --- 0 ACK 38 [0 1 0 0] 
r 6.071215501 _0_ AGT  --- 6 tcp 1040 [13a 0 1 800] ------- [1:0 0:0 30 0] [3 0] 1 0
s 6.071215501 _0_ AGT  --- 9 ack 40 [0 0 0 0] ------- [0:0 1:0 32 0] [3 0] 0 0
r 6.071215501 _0_ RTR  --- 9 ack 40 [0 0 0 0] ------- [0:0 1:0 32 0] [3 0] 0 0
s 6.071215501 _0_ RTR  --- 9 ack 40 [0 0 0 0] ------- [0:0 1:0 30 1] [3 0] 0 0
r 6.071504765 _1_ MAC  --- 0 ACK 38 [0 1 0 0] 
s 6.071754501 _0_ MAC  --- 0 RTS 44 [349 1 0 0] 
r 6.072106763 _1_ MAC  --- 0 RTS 44 [349 1 0 0] 
s 6.072116763 _1_ MAC  --- 0 CTS 38 [20f 0 0 0] 
r 6.072421025 _0_ MAC  --- 0 CTS 38 [20f 0 0 0] 
s 6.072431025 _0_ MAC  --- 9 ack 98 [13a 1 0 800] ------- [0:0 1:0 30 1] [3 0] 0 0
r 6.072634249 _1_ MAC  --- 9 ack 40 [13a 1 0 800] ------- [0:0 1:0 30 1] [3 0] 1 0
s 6.072644249 _1_ MAC  --- 0 ACK 38 [0 0 0 0] 
r 6.072659249 _1_ AGT  --- 9 ack 40 [13a 1 0 800] ------- [0:0 1:0 30 1] [3 0] 1 0
s 6.072659249 _1_ AGT  --- 10 tcp 1040 [0 0 0 0] ------- [1:0 0:0 32 0] [5 0] 0 0
r 6.072659249 _1_ RTR  --- 10 tcp 1040 [0 0 0 0] ------- [1:0 0:0 32 0] [5 0] 0 0
s 6.072659249 _1_ RTR  --- 10 tcp 1040 [0 0 0 0] ------- [1:0 0:0 30 0] [5 0] 0 0
r 6.072948510 _0_ MAC  --- 0 ACK 38 [0 0 0 0] 
s 6.073398249 _1_ MAC  --- 0 RTS 44 [349 0 1 0] 
r 6.073750509 _0_ MAC  --- 0 RTS 44 [349 0 1 0] 
s 6.073760509 _0_ MAC  --- 0 CTS 38 [20f 1 0 0] 
r 6.074064767 _1_ MAC  --- 0 CTS 38 [20f 1 0 0] 
s 6.074074767 _1_ MAC  --- 1 tcp 98 [13a 0 1 800] ------- [1:0 0:0 30 0] [0 0] 0 0
r 6.074277988 _0_ MAC  --- 1 tcp 40 [13a 0 1 800] ------- [1:0 0:0 30 0] [0 0] 1 0
s 6.074287988 _0_ MAC  --- 0 ACK 38 [0 1 0 0] 
r 6.074302988 _0_ AGT  --- 1 tcp 40 [13a 0 1 800] ------- [1:0 0:0 30 0] [0 0] 1 0
s 6.074302988 _0_ AGT  --- 11 ack 40 [0 0 0 0] ------- [0:0 1:0 32 0] [3 0] 0 0
r 6.074302988 _0_ RTR  --- 11 ack 40 [0 0 0 0] ------- [0:0 1:0 32 0] [3 0] 0 0
s 6.074302988 _0_ RTR  --- 11 ack 40 [0 0 0 0] ------- [0:0 1:0 30 1] [3 0] 0 0
r 6.074592245 _1_ MAC  --- 0 ACK 38 [0 1 0 0] 
s 6.074761988 _0_ MAC  --- 0 RTS 44 [349 1 0 0] 
r 6.075114244 _1_ MAC  --- 0 RTS 44 [349 1 0 0] 
s 6.075124244 _1_ MAC  --- 0 CTS 38 [20f 0 0 0] 
r 6.075428500 _0_ MAC  --- 0 CTS 38 [20f 0 0 0] 
s 6.075438500 _0_ MAC  --- 11 ack 98 [13a 1 0 800] ------- [0:0 1:0 30 1] [3 0] 0 0
s 6.076295718 _1_ MAC  --- 0 RTS 44 [3dd 0 1 0] 
r 6.076647971 _0_ MAC  --- 0 RTS 44 [3dd 0 1 0] 
s 6.076657971 _0_ MAC  --- 0 CTS 38 [2a3 1 0 0] 
r 6.076962224 _1_ MAC  --- 0 CTS 38 [2a3 1 0 0] 
s 6.076972224 _1_ MAC  --- 8 tcp 1098 [13a 0 1 800] ------- [1:0 0:0 30 0] [4 0] 0 0
r 6.077323587 _0_ MAC  --- 8 tcp 1040 [13a 0 1 800] ------- [1:0 0:0 30 0] [4 0] 1 0
s 6.077333587 _0_ MAC  --- 0 ACK 38 [0 1 0 0] 
r 6.077348587 _0_ AGT  --- 8 tcp 1040 [13a 0 1 800] ------- [1:0 0:0 30 0] [4 0] 1 0
s 6.077348587 _0_ AGT  --- 12 ack 40 [0 0 0 0] ------- [0:0 1:0 32 0] [4 0] 0 0
r 6.077348587 _0_ RTR  --- 12 ack 40 [0 0 0 0] ------- [0:0 1:0 32 0] [4 0] 0 0
s 6.077348587 _0_ RTR  --- 12 ack 40 [0 0 0 0] ------- [0:0 1:0 30 1] [4 0] 0 0
r 6.077637838 _1_ MAC  --- 0 ACK 38 [0 1 0 0] 
s 6.077967838 _1_ MAC  --- 0 RTS 44 [3dd 0 1 0] 
r 6.078320089 _0_ MAC  --- 0 RTS 44 [3dd 0 1 0] 
s 6.078330089 _0_ MAC  --- 0 CTS 38 [2a3 1 0 0] 
r 6.078634338 _1_ MAC  --- 0 CTS 38 [2a3 1 0 0] 
s 6.078644338 _1_ MAC  --- 10 tcp 1098 [13a 0 1 800] ------- [1:0 0:0 30 0] [5 0] 0 0
r 6.078995698 _0_ MAC  --- 10 tcp 1040 [13a 0 1 800] ------- [1:0 0:0 30 0] [5 0] 1 0
s 6.079005698 _0_ MAC  --- 0 ACK 38 [0 1 0 0] 
r 6.079020698 _0_ AGT  --- 10 tcp 1040 [13a 0 1 800] ------- [1:0 0:0 30 0] [5 0] 1 0
s 6.079020698 _0_ AGT  --- 13 ack 40 [0 0 0 0] ------- [0:0 1:0 32 0] [5 0] 0 0
r 6.079020698 _0_ RTR  --- 13 ack 40 [0 0 0 0] ------- [0:0 1:0 32 0] [5 0] 0 0
s 6.079020698 _0_ RTR  --- 13 ack 40 [0 0 0 0] ------- [0:0 1:0 30 1] [5 0] 0 0
r 6.079309946 _1_ MAC  --- 0 ACK 38 [0 1 0 0] 
s 6.079479698 _0_ MAC  --- 0 RTS 44 [349 1 0 0] 
r 6.079831945 _1_ MAC  --- 0 RTS 44 [349 1 0 0] 
s 6.079841945 _1_ MAC  --- 0 CTS 38 [20f 0 0 0] 
s 6.081540192 _0_ MAC  --- 0 RTS 44 [349 1 0 0] 
r 6.081892435 _1_ MAC  --- 0 RTS 44 [349 1 0 0] 
s 6.081902435 _1_ MAC  --- 0 CTS 38 [20f 0 0 0] 
r 6.082206678 _0_ MAC  --- 0 CTS 38 [20f 0 0 0] 
s 6.082216678 _0_ MAC  --- 11 ack 98 [13a 1 0 800] ------- [0:0 1:0 30 1] [3 0] 0 0
s 6.086467641 _0_ MAC  --- 0 RTS 44 [349 1 0 0] 
r 6.086819875 _1_ MAC  --- 0 RTS 44 [349 1 0 0] 
s 6.086829875 _1_ MAC  --- 0 CTS 38 [20f 0 0 0] 
r 6.087134110 _0_ MAC  --- 0 CTS 38 [20f 0 0 0] 
s 6.087144110 _0_ MAC  --- 11 ack 98 [13a 1 0 800] ------- [0:0 1:0 30 1] [3 0] 0 0
r 6.087347306 _1_ MAC  --- 11 ack 40 [13a 1 0 800] ------- [0:0 1:0 30 1] [3 0] 1 0
s 6.087357306 _1_ MAC  --- 0 ACK 38 [0 0 0 0] 
r 6.087372306 _1_ AGT  --- 11 ack 40 [13a 1 0 800] ------- [0:0 1:0 30 1] [3 0] 1 0
s 6.087372306 _1_ AGT  --- 14 tcp 1040 [0 0 0 0] ------- [1:0 0:0 32 0] [6 0] 0 0
r 6.087372306 _1_ RTR  --- 14 tcp 1040 [0 0 0 0] ------- [1:0 0:0 32 0] [6 0] 0 0
s 6.087372306 _1_ RTR  --- 14 tcp 1040 [0 0 0 0] ------- [1:0 0:0 30 0] [6 0] 0 0
r 6.087661539 _0_ MAC  --- 0 ACK 38 [0 0 0 0] 
s 6.087711306 _1_ MAC  --- 0 RTS 44 [3dd 0 1 0] 
s 6.088697539 _0_ MAC  --- 0 RTS 44 [349 1 0 0] 
r 6.089049770 _1_ MAC  --- 0 RTS 44 [349 1 0 0] 
s 6.089059770 _1_ MAC  --- 0 CTS 38 [20f 0 0 0] 
r 6.089364001 _0_ MAC  --- 0 CTS 38 [20f 0 0 0] 
s 6.089374001 _0_ MAC  --- 12 ack 98 [13a 1 0 800] ------- [0:0 1:0 30 1] [4 0] 0 0
r 6.089577194 _1_ MAC  --- 12 ack 40 [13a 1 0 800] ------- [0:0 1:0 30 1] [4 0] 1 0
s 6.089587194 _1_ MAC  --- 0 ACK 38 [0 0 0 0] 
r 6.089602194 _1_ AGT  --- 12 ack 40 [13a 1 0 800] ------- [0:0 1:0 30 1] [4 0] 1 0
s 6.089602194 _1_ AGT  --- 15 tcp 1040 [0 0 0 0] ------- [1:0 0:0 32 0] [7 0] 0 0
r 6.089602194 _1_ RTR  --- 15 tcp 1040 [0 0 0 0] ------- [1:0 0:0 32 0] [7 0] 0 0
s 6.089602194 _1_ RTR  --- 15 tcp 1040 [0 0 0 0] ------- [1:0 0:0 30 0] [7 0] 0 0
r 6.089891423 _0_ MAC  --- 0 ACK 38 [0 0 0 0] 
s 6.090101423 _0_ MAC  --- 0 RTS 44 [349 1 0 0] 
r 6.090453652 _1_ MAC  --- 0 RTS 44 [349 1 0 0] 
s 6.090463652 _1_ MAC  --- 0 CTS 38 [20f 0 0 0] 
r 6.090767881 _0_ MAC  --- 0 CTS 38 [20f 0 0 0] 
s 6.090777881 _0_ MAC  --- 13 ack 98 [13a 1 0 800] ------- [0:0 1:0 30 1] [5 0] 0 0
r 6.090981072 _1_ MAC  --- 13 ack 40 [13a 1 0 800] ------- [0:0 1:0 30 1] [5 0] 1 0
s 6.090991072 _1_ MAC  --- 0 ACK 38 [0 0 0 0] 
r 6.091006072 _1_ AGT  --- 13 ack 40 [13a 1 0 800] ------- [0:0 1:0 30 1] [5 0] 1 0
s 6.091006072 _1_ AGT  --- 16 tcp 1040 [0 0 0 0] ------- [1:0 0:0 32 0] [8 0] 0 0
r 6.091006072 _1_ RTR  --- 16 tcp 1040 [0 0 0 0] ------- [1:0 0:0 32 0] [8 0] 0 0
s 6.091006072 _1_ RTR  --- 16 tcp 1040 [0 0 0 0] ------- [1:0 0:0 30 0] [8 0] 0 0
r 6.091295300 _0_ MAC  --- 0 ACK 38 [0 0 0 0] 
s 6.091805072 _1_ MAC  --- 0 RTS 44 [3dd 0 1 0] 
r 6.092157298 _0_ MAC  --- 0 RTS 44 [3dd 0 1 0] 
s 6.092167298 _0_ MAC  --- 0 CTS 38 [2a3 1 0 0] 
r 6.092471524 _1_ MAC  --- 0 CTS 38 [2a3 1 0 0] 
s 6.092481524 _1_ MAC  --- 14 tcp 1098 [13a 0 1 800] ------- [1:0 0:0 30 0] [6 0] 0 0
r 6.092832861 _0_ MAC  --- 14 tcp 1040 [13a 0 1 800] ------- [1:0 0:0 30 0] [6 0] 1 0
s 6.092842861 _0_ MAC  --- 0 ACK 38 [0 1 0 0] 
r 6.092857861 _0_ AGT  --- 14 tcp 1040 [13a 0 1 800] ------- [1:0 0:0 30 0] [6 0] 1 0
s 6.092857861 _0_ AGT  --- 17 ack 40 [0 0 0 0] ------- [0:0 1:0 32 0] [6 0] 0 0
r 6.092857861 _0_ RTR  --- 17 ack 40 [0 0 0 0] ------- [0:0 1:0 32 0] [6 0] 0 0
s 6.092857861 _0_ RTR  --- 17 ack 40 [0 0 0 0] ------- [0:0 1:0 30 1] [6 0] 0 0
r 6.093147086 _1_ MAC  --- 0 ACK 38 [0 1 0 0] 
s 6.093276861 _0_ MAC  --- 0 RTS 44 [349 1 0 0] 
r 6.093629085 _1_ MAC  --- 0 RTS 44 [349 1 0 0] 
s 6.093639085 _1_ MAC  --- 0 CTS 38 [20f 0 0 0] 
r 6.093943309 _0_ MAC  --- 0 CTS 38 [20f 0 0 0] 
s 6.093953309 _0_ MAC  --- 17 ack 98 [13a 1 0 800] ------- [0:0 1:0 30 1] [6 0] 0 0
r 6.094156495 _1_ MAC  --- 17 ack 40 [13a 1 0 800] ------- [0:0 1:0 30 1] [6 0] 1 0
s 6.094166495 _1_ MAC  --- 0 ACK 38 [0 0 0 0] 
r 6.094181495 _1_ AGT  --- 17 ack 40 [13a 1 0 800] ------- [0:0 1:0 30 1] [6 0] 1 0
s 6.094181495 _1_ AGT  --- 18 tcp 1040 [0 0 0 0] ------- [1:0 0:0 32 0] [9 0] 0 0
r 6.094181495 _1_ RTR  --- 18 tcp 1040 [0 0 0 0] ------- [1:0 0:0 32 0] [9 0] 0 0
s 6.094181495 _1_ RTR  --- 18 tcp 1040 [0 0 0 0] ------- [1:0 0:0 30 0] [9 0] 0 0
r 6.094470719 _0_ MAC  --- 0 ACK 38 [0 0 0 0] 
s 6.094760495 _1_ MAC  --- 0 RTS 44 [3dd 0 1 0] 
r 6.095112718 _0_ MAC  --- 0 RTS 44 [3dd 0 1 0] 
s 6.095122718 _0_ MAC  --- 0 CTS 38 [2a3 1 0 0] 
r 6.095426940 _1_ MAC  --- 0 CTS 38 [2a3 1 0 0] 
s 6.095436940 _1_ MAC  --- 15 tcp 1098 [13a 0 1 800] ------- [1:0 0:0 30 0] [7 0] 0 0
r 6.095788272 _0_ MAC  --- 15 tcp 1040 [13a 0 1 800] ------- [1:0 0:0 30 0] [7 0] 1 0
s 6.095798272 _0_ MAC  --- 0 ACK 38 [0 1 0 0] 
r 6.095813272 _0_ AGT  --- 15 tcp 1040 [13a 0 1 800] ------- [1:0 0:0 30 0] [7 0] 1 0
s 6.095813272 _0_ AGT  --- 19 ack 40 [0 0 0 0] ------- [0:0 1:0 32 0] [7 0] 0 0
r 6.095813272 _0_ RTR  --- 19 ack 40 [0 0 0 0] ------- [0:0 1:0 32 0] [7 0] 0 0
s 6.095813272 _0_ RTR  --- 19 ack 40 [0 0 0 0] ------- [0:0 1:0 30 1] [7 0] 0 0
r 6.096102493 _1_ MAC  --- 0 ACK 38 [0 1 0 0] 
s 6.096392272 _0_ MAC  --- 0 RTS 44 [349 1 0 0] 
s 6.097192272 _0_ MAC  --- 0 RTS 44 [349 1 0 0] 
s 6.098018491 _1_ MAC  --- 0 RTS 44 [3dd 0 1 0] 
r 6.098370710 _0_ MAC  --- 0 RTS 44 [3dd 0 1 0] 
s 6.098380710 _0_ MAC  --- 0 CTS 38 [2a3 1 0 0] 
r 6.098684927 _1_ MAC  --- 0 CTS 38 [2a3 1 0 0] 
s 6.098694927 _1_ MAC  --- 16 tcp 1098 [13a 0 1 800] ------- [1:0 0:0 30 0] [8 0] 0 0
r 6.099046256 _0_ MAC  --- 16 tcp 1040 [13a 0 1 800] ------- [1:0 0:0 30 0] [8 0] 1 0
s 6.099056256 _0_ MAC  --- 0 ACK 38 [0 1 0 0] 
r 6.099071256 _0_ AGT  --- 16 tcp 1040 [13a 0 1 800] ------- [1:0 0:0 30 0] [8 0] 1 0
s 6.099071256 _0_ AGT  --- 20 ack 40 [0 0 0 0] ------- [0:0 1:0 32 0] [8 0] 0 0
r 6.099071256 _0_ RTR  --- 20 ack 40 [0 0 0 0] ------- [0:0 1:0 32 0] [8 0] 0 0
s 6.099071256 _0_ RTR  --- 20 ack 40 [0 0 0 0] ------- [0:0 1:0 30 1] [8 0] 0 0
r 6.099360473 _1_ MAC  --- 0 ACK 38 [0 1 0 0] 
s 6.099890473 _1_ MAC  --- 0 RTS 44 [3dd 0 1 0] 
r 6.100242689 _0_ MAC  --- 0 RTS 44 [3dd 0 1 0] 
s 6.100252689 _0_ MAC  --- 0 CTS 38 [2a3 1 0 0] 
r 6.100556904 _1_ MAC  --- 0 CTS 38 [2a3 1 0 0] 
s 6.100566904 _1_ MAC  --- 18 tcp 1098 [13a 0 1 800] ------- [1:0 0:0 30 0] [9 0] 0 0
r 6.100918231 _0_ MAC  --- 18 tcp 1040 [13a 0 1 800] ------- [1:0 0:0 30 0] [9 0] 1 0
s 6.100928231 _0_ MAC  --- 0 ACK 38 [0 1 0 0] 
r 6.100943231 _0_ AGT  --- 18 tcp 1040 [13a 0 1 800] ------- [1:0 0:0 30 0] [9 0] 1 0
s 6.100943231 _0_ AGT  --- 21 ack 40 [0 0 0 0] ------- [0:0 1:0 32 0] [9 0] 0 0
r 6.100943231 _0_ RTR  --- 21 ack 40 [0 0 0 0] ------- [0:0 1:0 32 0] [9 0] 0 0
s 6.100943231 _0_ RTR  --- 21 ack 40 [0 0 0 0] ------- [0:0 1:0 30 1] [9 0] 0 0
r 6.101232446 _1_ MAC  --- 0 ACK 38 [0 1 0 0] 
s 6.102862231 _0_ MAC  --- 0 RTS 44 [349 1 0 0] 
r 6.103214444 _1_ MAC  --- 0 RTS 44 [349 1 0 0] 
s 6.103224444 _1_ MAC  --- 0 CTS 38 [20f 0 0 0] 
r 6.103528656 _0_ MAC  --- 0 CTS 38 [20f 0 0 0] 
s 6.103538656 _0_ MAC  --- 19 ack 98 [13a 1 0 800] ------- [0:0 1:0 30 1] [7 0] 0 0
r 6.103741832 _1_ MAC  --- 19 ack 40 [13a 1 0 800] ------- [0:0 1:0 30 1] [7 0] 1 0
s 6.103751832 _1_ MAC  --- 0 ACK 38 [0 0 0 0] 
r 6.103766832 _1_ AGT  --- 19 ack 40 [13a 1 0 800] ------- [0:0 1:0 30 1] [7 0] 1 0
s 6.103766832 _1_ AGT  --- 22 tcp 1040 [0 0 0 0] ------- [1:0 0:0 32 0] [10 0] 0 0
r 6.103766832 _1_ RTR  --- 22 tcp 1040 [0 0 0 0] ------- [1:0 0:0 32 0] [10 0] 0 0
s 6.103766832 _1_ AGT  --- 23 tcp 1040 [0 0 0 0] ------- [1:0 0:0 32 0] [11 0] 0 0
r 6.103766832 _1_ RTR  --- 23 tcp 1040 [0 0 0 0] ------- [1:0 0:0 32 0] [11 0] 0 0
s 6.103766832 _1_ RTR  --- 22 tcp 1040 [0 0 0 0] ------- [1:0 0:0 30 0] [10 0] 0 0
s 6.103766832 _1_ RTR  --- 23 tcp 1040 [0 0 0 0] ------- [1:0 0:0 30 0] [11 0] 0 0
r 6.104056044 _0_ MAC  --- 0 ACK 38 [0 0 0 0] 
s 6.104225832 _1_ MAC  --- 0 RTS 44 [3dd 0 1 0] 
r 6.104578043 _0_ MAC  --- 0 RTS 44 [3dd 0 1 0] 
s 6.104588043 _0_ MAC  --- 0 CTS 38 [2a3 1 0 0] 
r 6.104892255 _1_ MAC  --- 0 CTS 38 [2a3 1 0 0] 
s 6.104902255 _1_ MAC  --- 22 tcp 1098 [13a 0 1 800] ------- [1:0 0:0 30 0] [10 0] 0 0
r 6.105253577 _0_ MAC  --- 22 tcp 1040 [13a 0 1 800] ------- [1:0 0:0 30 0] [10 0] 1 0
s 6.105263577 _0_ MAC  --- 0 ACK 38 [0 1 0 0] 
r 6.105278577 _0_ AGT  --- 22 tcp 1040 [13a 0 1 800] ------- [1:0 0:0 30 0] [10 0] 1 0
s 6.105278577 _0_ AGT  --- 24 ack 40 [0 0 0 0] ------- [0:0 1:0 32 0] [10 0] 0 0
r 6.105278577 _0_ RTR  --- 24 ack 40 [0 0 0 0] ------- [0:0 1:0 32 0] [10 0] 0 0
s 6.105278577 _0_ RTR  --- 24 ack 40 [0 0 0 0] ------- [0:0 1:0 30 1] [10 0] 0 0
r 6.105567788 _1_ MAC  --- 0 ACK 38 [0 1 0 0] 
s 6.105657788 _1_ MAC  --- 0 RTS 44 [3dd 0 1 0] 
r 6.106009998 _0_ MAC  --- 0 RTS 44 [3dd 0 1 0] 
s 6.106019998 _0_ MAC  --- 0 CTS 38 [2a3 1 0 0] 
r 6.106324208 _1_ MAC  --- 0 CTS 38 [2a3 1 0 0] 
s 6.106334208 _1_ MAC  --- 23 tcp 1098 [13a 0 1 800] ------- [1:0 0:0 30 0] [11 0] 0 0
r 6.106685529 _0_ MAC  --- 23 tcp 1040 [13a 0 1 800] ------- [1:0 0:0 30 0] [11 0] 1 0
s 6.106695529 _0_ MAC  --- 0 ACK 38 [0 1 0 0] 
r 6.106710529 _0_ AGT  --- 23 tcp 1040 [13a 0 1 800] ------- [1:0 0:0 30 0] [11 0] 1 0
s 6.106710529 _0_ AGT  --- 25 ack 40 [0 0 0 0] ------- [0:0 1:0 32 0] [11 0] 0 0
r 6.106710529 _0_ RTR  --- 25 ack 40 [0 0 0 0] ------- [0:0 1:0 32 0] [11 0] 0 0
s 6.106710529 _0_ RTR  --- 25 ack 40 [0 0 0 0] ------- [0:0 1:0 30 1] [11 0] 0 0
r 6.106999739 _1_ MAC  --- 0 ACK 38 [0 1 0 0] 
s 6.107209529 _0_ MAC  --- 0 RTS 44 [349 1 0 0] 
r 6.107561738 _1_ MAC  --- 0 RTS 44 [349 1 0 0] 
s 6.107571738 _1_ MAC  --- 0 CTS 38 [20f 0 0 0] 
r 6.107875947 _0_ MAC  --- 0 CTS 38 [20f 0 0 0] 
s 6.107885947 _0_ MAC  --- 20 ack 98 [13a 1 0 800] ------- [0:0 1:0 30 1] [8 0] 0 0
r 6.108089119 _1_ MAC  --- 20 ack 40 [13a 1 0 800] ------- [0:0 1:0 30 1] [8 0] 1 0
s 6.108099119 _1_ MAC  --- 0 ACK 38 [0 0 0 0] 
r 6.108114119 _1_ AGT  --- 20 ack 40 [13a 1 0 800] ------- [0:0 1:0 30 1] [8 0] 1 0
s 6.108114119 _1_ AGT  --- 26 tcp 1040 [0 0 0 0] ------- [1:0 0:0 32 0] [12 0] 0 0
r 6.108114119 _1_ RTR  --- 26 tcp 1040 [0 0 0 0] ------- [1:0 0:0 32 0] [12 0] 0 0
s 6.108114119 _1_ RTR  --- 26 tcp 1040 [0 0 0 0] ------- [1:0 0:0 30 0] [12 0] 0 0
r 6.108403327 _0_ MAC  --- 0 ACK 38 [0 0 0 0] 
s 6.108573327 _0_ MAC  --- 0 RTS 44 [349 1 0 0] 
r 6.108925535 _1_ MAC  --- 0 RTS 44 [349 1 0 0] 
s 6.108935535 _1_ MAC  --- 0 CTS 38 [20f 0 0 0] 
r 6.109239743 _0_ MAC  --- 0 CTS 38 [20f 0 0 0] 
s 6.109249743 _0_ MAC  --- 21 ack 98 [13a 1 0 800] ------- [0:0 1:0 30 1] [9 0] 0 0
s 6.110066914 _1_ MAC  --- 0 RTS 44 [3dd 0 1 0] 
s 6.110906914 _1_ MAC  --- 0 RTS 44 [3dd 0 1 0] 
r 6.111259121 _0_ MAC  --- 0 RTS 44 [3dd 0 1 0] 
s 6.111269121 _0_ MAC  --- 0 CTS 38 [2a3 1 0 0] 
s 6.112108121 _0_ MAC  --- 0 RTS 44 [349 1 0 0] 
r 6.112460327 _1_ MAC  --- 0 RTS 44 [349 1 0 0] 
s 6.112470327 _1_ MAC  --- 0 CTS 38 [20f 0 0 0] 
r 6.112774533 _0_ MAC  --- 0 CTS 38 [20f 0 0 0] 
s 6.112784533 _0_ MAC  --- 21 ack 98 [13a 1 0 800] ------- [0:0 1:0 30 1] [9 0] 0 0
r 6.112987701 _1_ MAC  --- 21 ack 40 [13a 1 0 800] ------- [0:0 1:0 30 1] [9 0] 1 0
s 6.112997701 _1_ MAC  --- 0 ACK 38 [0 0 0 0] 
r 6.113012701 _1_ AGT  --- 21 ack 40 [13a 1 0 800] ------- [0:0 1:0 30 1] [9 0] 1 0
s 6.113012701 _1_ AGT  --- 27 tcp 1040 [0 0 0 0] ------- [1:0 0:0 32 0] [13 0] 0 0
r 6.113012701 _1_ RTR  --- 27 tcp 1040 [0 0 0 0] ------- [1:0 0:0 32 0] [13 0] 0 0
s 6.113012701 _1_ RTR  --- 27 tcp 1040 [0 0 0 0] ------- [1:0 0:0 30 0] [13 0] 0 0
r 6.113301907 _0_ MAC  --- 0 ACK 38 [0 0 0 0] 
s 6.113611907 _0_ MAC  --- 0 RTS 44 [349 1 0 0] 
r 6.113964112 _1_ MAC  --- 0 RTS 44 [349 1 0 0] 
s 6.113974112 _1_ MAC  --- 0 CTS 38 [20f 0 0 0] 
r 6.114278318 _0_ MAC  --- 0 CTS 38 [20f 0 0 0] 
s 6.114288318 _0_ MAC  --- 24 ack 98 [13a 1 0 800] ------- [0:0 1:0 30 1] [10 0] 0 0
r 6.114491486 _1_ MAC  --- 24 ack 40 [13a 1 0 800] ------- [0:0 1:0 30 1] [10 0] 1 0
s 6.114501486 _1_ MAC  --- 0 ACK 38 [0 0 0 0] 
r 6.114516486 _1_ AGT  --- 24 ack 40 [13a 1 0 800] ------- [0:0 1:0 30 1] [10 0] 1 0
s 6.114516486 _1_ AGT  --- 28 tcp 1040 [0 0 0 0] ------- [1:0 0:0 32 0] [14 0] 0 0
r 6.114516486 _1_ RTR  --- 28 tcp 1040 [0 0 0 0] ------- [1:0 0:0 32 0] [14 0] 0 0
s 6.114516486 _1_ RTR  --- 28 tcp 1040 [0 0 0 0] ------- [1:0 0:0 30 0] [14 0] 0 0
r 6.114805691 _0_ MAC  --- 0 ACK 38 [0 0 0 0] 
s 6.115055691 _0_ MAC  --- 0 RTS 44 [349 1 0 0] 
r 6.115407895 _1_ MAC  --- 0 RTS 44 [349 1 0 0] 
s 6.115417895 _1_ MAC  --- 0 CTS 38 [20f 0 0 0] 
r 6.115722100 _0_ MAC  --- 0 CTS 38 [20f 0 0 0] 
s 6.115732100 _0_ MAC  --- 25 ack 98 [13a 1 0 800] ------- [0:0 1:0 30 1] [11 0] 0 0
s 6.116983063 _0_ MAC  --- 0 RTS 44 [349 1 0 0] 
r 6.117335267 _1_ MAC  --- 0 RTS 44 [349 1 0 0] 
s 6.117345267 _1_ MAC  --- 0 CTS 38 [20f 0 0 0] 
r 6.117649471 _0_ MAC  --- 0 CTS 38 [20f 0 0 0] 
s 6.117659471 _0_ MAC  --- 25 ack 98 [13a 1 0 800] ------- [0:0 1:0 30 1] [11 0] 0 0
r 6.117862638 _1_ MAC  --- 25 ack 40 [13a 1 0 800] ------- [0:0 1:0 30 1] [11 0] 1 0
s 6.117872638 _1_ MAC  --- 0 ACK 38 [0 0 0 0] 
r 6.117887638 _1_ AGT  --- 25 ack 40 [13a 1 0 800] ------- [0:0 1:0 30 1] [11 0] 1 0
s 6.117887638 _1_ AGT  --- 29 tcp 1040 [0 0 0 0] ------- [1:0 0:0 32 0] [15 0] 0 0
r 6.117887638 _1_ RTR  --- 29 tcp 1040 [0 0 0 0] ------- [1:0 0:0 32 0] [15 0] 0 0
s 6.117887638 _1_ RTR  --- 29 tcp 1040 [0 0 0 0] ------- [1:0 0:0 30 0] [15 0] 0 0
r 6.118176842 _0_ MAC  --- 0 ACK 38 [0 0 0 0] 
s 6.118686638 _1_ MAC  --- 0 RTS 44 [3dd 0 1 0] 
r 6.119038842 _0_ MAC  --- 0 RTS 44 [3dd 0 1 0] 
s 6.119048842 _0_ MAC  --- 0 CTS 38 [2a3 1 0 0] 
r 6.119353046 _1_ MAC  --- 0 CTS 38 [2a3 1 0 0] 
s 6.119363046 _1_ MAC  --- 26 tcp 1098 [13a 0 1 800] ------- [1:0 0:0 30 0] [12 0] 0 0
r 6.119714361 _0_ MAC  --- 26 tcp 1040 [13a 0 1 800] ------- [1:0 0:0 30 0] [12 0] 1 0
s 6.119724361 _0_ MAC  --- 0 ACK 38 [0 1 0 0] 