M 0.00000 1 (300.00, 500.00, 0.00), (248.00, 480.00), 1000.00
M 0.10000 0 (258.00, 500.00, 0.00), (250.00, 500.00), 1000.00
s 0.200000000 _1_ AGT  --- 0 tcp 40 [0 0 0 0] ------- [1:0 0:0 32 0] [0 0] 0 0
r 0.200000000 _1_ RTR  --- 0 tcp 40 [0 0 0 0] ------- [1:0 0:0 32 0] [0 0] 0 0
s 0.200000000 _1_ RTR  --- 0 AODV 48 [0 0 0 0] ------- [1:255 -1:255 30 0] [0x2 1 1 [0 0] [1 4]] (REQUEST)
s 0.200115000 _1_ MAC  --- 0 AODV 106 [0 ffffffff 1 800] ------- [1:255 -1:255 30 0] [0x2 1 1 [0 0] [1 4]] (REQUEST)
r 0.200963067 _0_ MAC  --- 0 AODV 48 [0 ffffffff 1 800] ------- [1:255 -1:255 30 0] [0x2 1 1 [0 0] [1 4]] (REQUEST)
r 0.200988067 _0_ RTR  --- 0 AODV 48 [0 ffffffff 1 800] ------- [1:255 -1:255 30 0] [0x2 1 1 [0 0] [1 4]] (REQUEST)
s 0.200988067 _0_ RTR  --- 0 AODV 44 [0 0 0 0] ------- [0:255 1:255 30 1] [0x4 1 [0 4] 10.000000] (REPLY)
s 0.201343067 _0_ MAC  --- 0 ARP 86 [0 ffffffff 0 806] ------- [REQUEST 0/0 0/1]
r 0.202031134 _1_ MAC  --- 0 ARP 28 [0 ffffffff 0 806] ------- [REQUEST 0/0 0/1]
s 0.202321134 _1_ MAC  --- 0 RTS 44 [347 0 1 0] 
r 0.202673201 _0_ MAC  --- 0 RTS 44 [347 0 1 0] 
s 0.202683201 _0_ MAC  --- 0 CTS 38 [20d 1 0 0] 
r 0.202987268 _1_ MAC  --- 0 CTS 38 [20d 1 0 0] 
s 0.202997268 _1_ MAC  --- 0 ARP 86 [13a 0 1 806] ------- [REPLY 1/1 0/0]
r 0.203198520 _0_ MAC  --- 0 ARP 28 [13a 0 1 806] ------- [REPLY 1/1 0/0]
s 0.203208520 _0_ MAC  --- 0 ACK 38 [0 1 0 0] 
r 0.203512587 _1_ MAC  --- 0 ACK 38 [0 1 0 0] 
s 0.203642520 _0_ MAC  --- 0 RTS 44 [34a 1 0 0] 
r 0.203994587 _1_ MAC  --- 0 RTS 44 [34a 1 0 0] 
s 0.204004587 _1_ MAC  --- 0 CTS 38 [210 0 0 0] 
r 0.204308654 _0_ MAC  --- 0 CTS 38 [210 0 0 0] 
s 0.204318654 _0_ MAC  --- 0 AODV 102 [13a 1 0 800] ------- [0:255 1:255 30 1] [0x4 1 [0 4] 10.000000] (REPLY)
r 0.204522277 _1_ MAC  --- 0 AODV 44 [13a 1 0 800] ------- [0:255 1:255 30 1] [0x4 1 [0 4] 10.000000] (REPLY)
s 0.204532277 _1_ MAC  --- 0 ACK 38 [0 0 0 0] 
r 0.204547277 _1_ RTR  --- 0 AODV 44 [13a 1 0 800] ------- [0:255 1:255 30 1] [0x4 1 [0 4] 10.000000] (REPLY)
s 0.204547277 _1_ RTR  --- 0 tcp 40 [0 0 0 0] ------- [1:0 0:0 30 0] [0 0] 0 0
r 0.204836344 _0_ MAC  --- 0 ACK 38 [0 0 0 0] 
s 0.205046277 _1_ MAC  --- 0 RTS 44 [349 0 1 0] 
r 0.205398344 _0_ MAC  --- 0 RTS 44 [349 0 1 0] 
s 0.205408344 _0_ MAC  --- 0 CTS 38 [20f 1 0 0] 
r 0.205712411 _1_ MAC  --- 0 CTS 38 [20f 1 0 0] 
s 0.205722411 _1_ MAC  --- 0 tcp 98 [13a 0 1 800] ------- [1:0 0:0 30 0] [0 0] 0 0
r 0.205925441 _0_ MAC  --- 0 tcp 40 [13a 0 1 800] ------- [1:0 0:0 30 0] [0 0] 1 0
s 0.205935441 _0_ MAC  --- 0 ACK 38 [0 1 0 0] 
r 0.205950441 _0_ AGT  --- 0 tcp 40 [13a 0 1 800] ------- [1:0 0:0 30 0] [0 0] 1 0
s 0.205950441 _0_ AGT  --- 1 ack 40 [0 0 0 0] ------- [0:0 1:0 32 0] [0 0] 0 0
r 0.205950441 _0_ RTR  --- 1 ack 40 [0 0 0 0] ------- [0:0 1:0 32 0] [0 0] 0 0
s 0.205950441 _0_ RTR  --- 1 ack 40 [0 0 0 0] ------- [0:0 1:0 30 1] [0 0] 0 0
r 0.206239508 _1_ MAC  --- 0 ACK 38 [0 1 0 0] 
s 0.206349441 _0_ MAC  --- 0 RTS 44 [349 1 0 0] 
r 0.206701508 _1_ MAC  --- 0 RTS 44 [349 1 0 0] 
s 0.206711508 _1_ MAC  --- 0 CTS 38 [20f 0 0 0] 
r 0.207015575 _0_ MAC  --- 0 CTS 38 [20f 0 0 0] 
s 0.207025575 _0_ MAC  --- 1 ack 98 [13a 1 0 800] ------- [0:0 1:0 30 1] [0 0] 0 0
r 0.207228605 _1_ MAC  --- 1 ack 40 [13a 1 0 800] ------- [0:0 1:0 30 1] [0 0] 1 0
s 0.207238605 _1_ MAC  --- 0 ACK 38 [0 0 0 0] 
r 0.207253605 _1_ AGT  --- 1 ack 40 [13a 1 0 800] ------- [0:0 1:0 30 1] [0 0] 1 0
s 0.207253605 _1_ AGT  --- 2 tcp 1040 [0 0 0 0] ------- [1:0 0:0 32 0] [1 0] 0 0
r 0.207253605 _1_ RTR  --- 2 tcp 1040 [0 0 0 0] ------- [1:0 0:0 32 0] [1 0] 0 0
s 0.207253605 _1_ AGT  --- 3 tcp 1040 [0 0 0 0] ------- [1:0 0:0 32 0] [2 0] 0 0
r 0.207253605 _1_ RTR  --- 3 tcp 1040 [0 0 0 0] ------- [1:0 0:0 32 0] [2 0] 0 0
s 0.207253605 _1_ RTR  --- 2 tcp 1040 [0 0 0 0] ------- [1:0 0:0 30 0] [1 0] 0 0
s 0.207253605 _1_ RTR  --- 3 tcp 1040 [0 0 0 0] ------- [1:0 0:0 30 0] [2 0] 0 0
r 0.207542672 _0_ MAC  --- 0 ACK 38 [0 0 0 0] 
s 0.207772605 _1_ MAC  --- 0 RTS 44 [3dd 0 1 0] 
r 0.208124672 _0_ MAC  --- 0 RTS 44 [3dd 0 1 0] 
s 0.208134672 _0_ MAC  --- 0 CTS 38 [2a3 1 0 0] 
r 0.208438739 _1_ MAC  --- 0 CTS 38 [2a3 1 0 0] 
s 0.208448739 _1_ MAC  --- 2 tcp 1098 [13a 0 1 800] ------- [1:0 0:0 30 0] [1 0] 0 0
r 0.208799917 _0_ MAC  --- 2 tcp 1040 [13a 0 1 800] ------- [1:0 0:0 30 0] [1 0] 1 0
s 0.208809917 _0_ MAC  --- 0 ACK 38 [0 1 0 0] 
r 0.208824917 _0_ AGT  --- 2 tcp 1040 [13a 0 1 800] ------- [1:0 0:0 30 0] [1 0] 1 0
s 0.208824917 _0_ AGT  --- 4 ack 40 [0 0 0 0] ------- [0:0 1:0 32 0] [1 0] 0 0
r 0.208824917 _0_ RTR  --- 4 ack 40 [0 0 0 0] ------- [0:0 1:0 32 0] [1 0] 0 0
s 0.208824917 _0_ RTR  --- 4 ack 40 [0 0 0 0] ------- [0:0 1:0 30 1] [1 0] 0 0
s 0.209343917 _0_ MAC  --- 0 RTS 44 [349 1 0 0] 
r 0.209695984 _1_ MAC  --- 0 RTS 44 [349 1 0 0] 
s 0.209705984 _1_ MAC  --- 0 CTS 38 [20f 0 0 0] 
s 0.211104051 _0_ MAC  --- 0 RTS 44 [349 1 0 0] 
r 0.211456118 _1_ MAC  --- 0 RTS 44 [349 1 0 0] 
s 0.211466118 _1_ MAC  --- 0 CTS 38 [20f 0 0 0] 
r 0.211770185 _0_ MAC  --- 0 CTS 38 [20f 0 0 0] 
s 0.211780185 _0_ MAC  --- 4 ack 98 [13a 1 0 800] ------- [0:0 1:0 30 1] [1 0] 0 0
r 0.211983215 _1_ MAC  --- 4 ack 40 [13a 1 0 800] ------- [0:0 1:0 30 1] [1 0] 1 0
s 0.211993215 _1_ MAC  --- 0 ACK 38 [0 0 0 0] 
r 0.212008215 _1_ AGT  --- 4 ack 40 [13a 1 0 800] ------- [0:0 1:0 30 1] [1 0] 1 0
s 0.212008215 _1_ AGT  --- 5 tcp 1040 [0 0 0 0] ------- [1:0 0:0 32 0] [3 0] 0 0
r 0.212008215 _1_ RTR  --- 5 tcp 1040 [0 0 0 0] ------- [1:0 0:0 32 0] [3 0] 0 0
s 0.212008215 _1_ AGT  --- 6 tcp 1040 [0 0 0 0] ------- [1:0 0:0 32 0] [4 0] 0 0
r 0.212008215 _1_ RTR  --- 6 tcp 1040 [0 0 0 0] ------- [1:0 0:0 32 0] [4 0] 0 0
s 0.212008215 _1_ RTR  --- 5 tcp 1040 [0 0 0 0] ------- [1:0 0:0 30 0] [3 0] 0 0
s 0.212008215 _1_ RTR  --- 6 tcp 1040 [0 0 0 0] ------- [1:0 0:0 30 0] [4 0] 0 0
r 0.212297282 _0_ MAC  --- 0 ACK 38 [0 0 0 0] 
s 0.212567215 _1_ MAC  --- 0 RTS 44 [3dd 0 1 0] 
r 0.212919282 _0_ MAC  --- 0 RTS 44 [3dd 0 1 0] 
s 0.212929282 _0_ MAC  --- 0 CTS 38 [2a3 1 0 0] 
r 0.213233349 _1_ MAC  --- 0 CTS 38 [2a3 1 0 0] 
s 0.213243349 _1_ MAC  --- 2 tcp 1098 [13a 0 1 800] ------- [1:0 0:0 30 0] [1 0] 0 0
D 0.213594527 _0_ MAC  DUP 2 tcp 1040 [13a 0 1 800] ------- [1:0 0:0 30 0] [1 0] 1 0
s 0.213604527 _0_ MAC  --- 0 ACK 38 [0 1 0 0] 
s 0.216522594 _1_ MAC  --- 0 RTS 44 [3dd 0 1 0] 
r 0.216874661 _0_ MAC  --- 0 RTS 44 [3dd 0 1 0] 
s 0.216884661 _0_ MAC  --- 0 CTS 38 [2a3 1 0 0] 
r 0.217188728 _1_ MAC  --- 0 CTS 38 [2a3 1 0 0] 
s 0.217198728 _1_ MAC  --- 2 tcp 1098 [13a 0 1 800] ------- [1:0 0:0 30 0] [1 0] 0 0
D 0.217549906 _0_ MAC  DUP 2 tcp 1040 [13a 0 1 800] ------- [1:0 0:0 30 0] [1 0] 1 0
s 0.217559906 _0_ MAC  --- 0 ACK 38 [0 1 0 0] 
r 0.217863973 _1_ MAC  --- 0 ACK 38 [0 1 0 0] 
s 0.218073973 _1_ MAC  --- 0 RTS 44 [3dd 0 1 0] 
r 0.218426040 _0_ MAC  --- 0 RTS 44 [3dd 0 1 0] 
s 0.218436040 _0_ MAC  --- 0 CTS 38 [2a3 1 0 0] 
r 0.218740107 _1_ MAC  --- 0 CTS 38 [2a3 1 0 0] 
s 0.218750107 _1_ MAC  --- 3 tcp 1098 [13a 0 1 800] ------- [1:0 0:0 30 0] [2 0] 0 0
r 0.219101285 _0_ MAC  --- 3 tcp 1040 [13a 0 1 800] ------- [1:0 0:0 30 0] [2 0] 1 0
s 0.219111285 _0_ MAC  --- 0 ACK 38 [0 1 0 0] 
r 0.219126285 _0_ AGT  --- 3 tcp 1040 [13a 0 1 800] ------- [1:0 0:0 30 0] [2 0] 1 0
s 0.219126285 _0_ AGT  --- 7 ack 40 [0 0 0 0] ------- [0:0 1:0 32 0] [2 0] 0 0
r 0.219126285 _0_ RTR  --- 7 ack 40 [0 0 0 0] ------- [0:0 1:0 32 0] [2 0] 0 0
s 0.219126285 _0_ RTR  --- 7 ack 40 [0 0 0 0] ------- [0:0 1:0 30 1] [2 0] 0 0
r 0.219415352 _1_ MAC  --- 0 ACK 38 [0 1 0 0] 
s 0.219705352 _1_ MAC  --- 0 RTS 44 [3dd 0 1 0] 
r 0.220057419 _0_ MAC  --- 0 RTS 44 [3dd 0 1 0] 
s 0.220067419 _0_ MAC  --- 0 CTS 38 [2a3 1 0 0] 
r 0.220371486 _1_ MAC  --- 0 CTS 38 [2a3 1 0 0] 
s 0.220381486 _1_ MAC  --- 5 tcp 1098 [13a 0 1 800] ------- [1:0 0:0 30 0] [3 0] 0 0
r 0.220732664 _0_ MAC  --- 5 tcp 1040 [13a 0 1 800] ------- [1:0 0:0 30 0] [3 0] 1 0
s 0.220742664 _0_ MAC  --- 0 ACK 38 [0 1 0 0] 
r 0.220757664 _0_ AGT  --- 5 tcp 1040 [13a 0 1 800] ------- [1:0 0:0 30 0] [3 0] 1 0
s 0.220757664 _0_ AGT  --- 8 ack 40 [0 0 0 0] ------- [0:0 1:0 32 0] [3 0] 0 0
r 0.220757664 _0_ RTR  --- 8 ack 40 [0 0 0 0] ------- [0:0 1:0 32 0] [3 0] 0 0
s 0.220757664 _0_ RTR  --- 8 ack 40 [0 0 0 0] ------- [0:0 1:0 30 1] [3 0] 0 0
s 0.221216664 _0_ MAC  --- 0 RTS 44 [349 1 0 0] 
r 0.221568731 _1_ MAC  --- 0 RTS 44 [349 1 0 0] 
s 0.221578731 _1_ MAC  --- 0 CTS 38 [20f 0 0 0] 
r 0.221882798 _0_ MAC  --- 0 CTS 38 [20f 0 0 0] 
s 0.221892798 _0_ MAC  --- 7 ack 98 [13a 1 0 800] ------- [0:0 1:0 30 1] [2 0] 0 0
r 0.222095828 _1_ MAC  --- 7 ack 40 [13a 1 0 800] ------- [0:0 1:0 30 1] [2 0] 1 0
s 0.222105828 _1_ MAC  --- 0 ACK 38 [0 0 0 0] 
r 0.222120828 _1_ AGT  --- 7 ack 40 [13a 1 0 800] ------- [0:0 1:0 30 1] [2 0] 1 0
s 0.222120828 _1_ AGT  --- 9 tcp 1040 [0 0 0 0] ------- [1:0 0:0 32 0] [5 0] 0 0
r 0.222120828 _1_ RTR  --- 9 tcp 1040 [0 0 0 0] ------- [1:0 0:0 32 0] [5 0] 0 0
s 0.222120828 _1_ AGT  --- 10 tcp 1040 [0 0 0 0] ------- [1:0 0:0 32 0] [6 0] 0 0
r 0.222120828 _1_ RTR  --- 10 tcp 1040 [0 0 0 0] ------- [1:0 0:0 32 0] [6 0] 0 0
s 0.222120828 _1_ RTR  --- 9 tcp 1040 [0 0 0 0] ------- [1:0 0:0 30 0] [5 0] 0 0
s 0.222120828 _1_ RTR  --- 10 tcp 1040 [0 0 0 0] ------- [1:0 0:0 30 0] [6 0] 0 0
r 0.222409895 _0_ MAC  --- 0 ACK 38 [0 0 0 0] 
s 0.222939895 _0_ MAC  --- 0 RTS 44 [349 1 0 0] 
r 0.223291962 _1_ MAC  --- 0 RTS 44 [349 1 0 0] 
s 0.223301962 _1_ MAC  --- 0 CTS 38 [20f 0 0 0] 
r 0.223606029 _0_ MAC  --- 0 CTS 38 [20f 0 0 0] 
s 0.223616029 _0_ MAC  --- 8 ack 98 [13a 1 0 800] ------- [0:0 1:0 30 1] [3 0] 0 0
r 0.223819059 _1_ MAC  --- 8 ack 40 [13a 1 0 800] ------- [0:0 1:0 30 1] [3 0] 1 0
s 0.223829059 _1_ MAC  --- 0 ACK 38 [0 0 0 0] 
r 0.223844059 _1_ AGT  --- 8 ack 40 [13a 1 0 800] ------- [0:0 1:0 30 1] [3 0] 1 0
s 0.223844059 _1_ AGT  --- 11 tcp 1040 [0 0 0 0] ------- [1:0 0:0 32 0] [7 0] 0 0
r 0.223844059 _1_ RTR  --- 11 tcp 1040 [0 0 0 0] ------- [1:0 0:0 32 0] [7 0] 0 0
s 0.223844059 _1_ AGT  --- 12 tcp 1040 [0 0 0 0] ------- [1:0 0:0 32 0] [8 0] 0 0
r 0.223844059 _1_ RTR  --- 12 tcp 1040 [0 0 0 0] ------- [1:0 0:0 32 0] [8 0] 0 0
s 0.223844059 _1_ RTR  --- 11 tcp 1040 [0 0 0 0] ------- [1:0 0:0 30 0] [7 0] 0 0
s 0.223844059 _1_ RTR  --- 12 tcp 1040 [0 0 0 0] ------- [1:0 0:0 30 0] [8 0] 0 0
r 0.224133126 _0_ MAC  --- 0 ACK 38 [0 0 0 0] 
s 0.224923059 _1_ MAC  --- 0 RTS 44 [3dd 0 1 0] 
r 0.225275126 _0_ MAC  --- 0 RTS 44 [3dd 0 1 0] 
s 0.225285126 _0_ MAC  --- 0 CTS 38 [2a3 1 0 0] 
r 0.225589193 _1_ MAC  --- 0 CTS 38 [2a3 1 0 0] 
s 0.225599193 _1_ MAC  --- 5 tcp 1098 [13a 0 1 800] ------- [1:0 0:0 30 0] [3 0] 0 0
D 0.225950371 _0_ MAC  DUP 5 tcp 1040 [13a 0 1 800] ------- [1:0 0:0 30 0] [3 0] 1 0
s 0.225960371 _0_ MAC  --- 0 ACK 38 [0 1 0 0] 
r 0.226264438 _1_ MAC  --- 0 ACK 38 [0 1 0 0] 
s 0.226634438 _1_ MAC  --- 0 RTS 44 [3dd 0 1 0] 
s 0.228594438 _1_ MAC  --- 0 RTS 44 [3dd 0 1 0] 
r 0.228946505 _0_ MAC  --- 0 RTS 44 [3dd 0 1 0] 
s 0.228956505 _0_ MAC  --- 0 CTS 38 [2a3 1 0 0] 
r 0.229260572 _1_ MAC  --- 0 CTS 38 [2a3 1 0 0] 
s 0.229270572 _1_ MAC  --- 6 tcp 1098 [13a 0 1 800] ------- [1:0 0:0 30 0] [4 0] 0 0
s 0.231829683 _1_ MAC  --- 0 RTS 44 [3dd 0 1 0] 
r 0.232181750 _0_ MAC  --- 0 RTS 44 [3dd 0 1 0] 
s 0.232191750 _0_ MAC  --- 0 CTS 38 [2a3 1 0 0] 
s 0.234229817 _1_ MAC  --- 0 RTS 44 [3dd 0 1 0] 
s 0.243109817 _1_ MAC  --- 0 RTS 44 [3dd 0 1 0] 
r 0.243461884 _0_ MAC  --- 0 RTS 44 [3dd 0 1 0] 
s 0.243471884 _0_ MAC  --- 0 CTS 38 [2a3 1 0 0] 
r 0.243775951 _1_ MAC  --- 0 CTS 38 [2a3 1 0 0] 
s 0.243785951 _1_ MAC  --- 6 tcp 1098 [13a 0 1 800] ------- [1:0 0:0 30 0] [4 0] 0 0
r 0.244137129 _0_ MAC  --- 6 tcp 1040 [13a 0 1 800] ------- [1:0 0:0 30 0] [4 0] 1 0
s 0.244147129 _0_ MAC  --- 0 ACK 38 [0 1 0 0] 
r 0.244162129 _0_ AGT  --- 6 tcp 1040 [13a 0 1 800] ------- [1:0 0:0 30 0] [4 0] 1 0
s 0.244162129 _0_ AGT  --- 13 ack 40 [0 0 0 0] ------- [0:0 1:0 32 0] [4 0] 0 0
r 0.244162129 _0_ RTR  --- 13 ack 40 [0 0 0 0] ------- [0:0 1:0 32 0] [4 0] 0 0
s 0.244162129 _0_ RTR  --- 13 ack 40 [0 0 0 0] ------- [0:0 1:0 30 1] [4 0] 0 0
r 0.244451196 _1_ MAC  --- 0 ACK 38 [0 1 0 0] 
s 0.244681196 _1_ MAC  --- 0 RTS 44 [3dd 0 1 0] 
r 0.245033263 _0_ MAC  --- 0 RTS 44 [3dd 0 1 0] 
s 0.245043263 _0_ MAC  --- 0 CTS 38 [2a3 1 0 0] 
r 0.245347330 _1_ MAC  --- 0 CTS 38 [2a3 1 0 0] 
s 0.245357330 _1_ MAC  --- 9 tcp 1098 [13a 0 1 800] ------- [1:0 0:0 30 0] [5 0] 0 0
r 0.245708509 _0_ MAC  --- 9 tcp 1040 [13a 0 1 800] ------- [1:0 0:0 30 0] [5 0] 1 0
s 0.245718509 _0_ MAC  --- 0 ACK 38 [0 1 0 0] 
r 0.245733509 _0_ AGT  --- 9 tcp 1040 [13a 0 1 800] ------- [1:0 0:0 30 0] [5 0] 1 0
s 0.245733509 _0_ AGT  --- 14 ack 40 [0 0 0 0] ------- [0:0 1:0 32 0] [5 0] 0 0
r 0.245733509 _0_ RTR  --- 14 ack 40 [0 0 0 0] ------- [0:0 1:0 32 0] [5 0] 0 0
s 0.245733509 _0_ RTR  --- 14 ack 40 [0 0 0 0] ------- [0:0 1:0 30 1] [5 0] 0 0
r 0.246022576 _1_ MAC  --- 0 ACK 38 [0 1 0 0] 
s 0.246332509 _0_ MAC  --- 0 RTS 44 [349 1 0 0] 
r 0.246684576 _1_ MAC  --- 0 RTS 44 [349 1 0 0] 
s 0.246694576 _1_ MAC  --- 0 CTS 38 [20f 0 0 0] 
r 0.246998643 _0_ MAC  --- 0 CTS 38 [20f 0 0 0] 
s 0.247008643 _0_ MAC  --- 13 ack 98 [13a 1 0 800] ------- [0:0 1:0 30 1] [4 0] 0 0
r 0.247211672 _1_ MAC  --- 13 ack 40 [13a 1 0 800] ------- [0:0 1:0 30 1] [4 0] 1 0
s 0.247221672 _1_ MAC  --- 0 ACK 38 [0 0 0 0] 
r 0.247236672 _1_ AGT  --- 13 ack 40 [13a 1 0 800] ------- [0:0 1:0 30 1] [4 0] 1 0
s 0.247236672 _1_ AGT  --- 15 tcp 1040 [0 0 0 0] ------- [1:0 0:0 32 0] [9 0] 0 0
r 0.247236672 _1_ RTR  --- 15 tcp 1040 [0 0 0 0] ------- [1:0 0:0 32 0] [9 0] 0 0
s 0.247236672 _1_ AGT  --- 16 tcp 1040 [0 0 0 0] ------- [1:0 0:0 32 0] [10 0] 0 0
r 0.247236672 _1_ RTR  --- 16 tcp 1040 [0 0 0 0] ------- [1:0 0:0 32 0] [10 0] 0 0
s 0.247236672 _1_ RTR  --- 15 tcp 1040 [0 0 0 0] ------- [1:0 0:0 30 0] [9 0] 0 0
s 0.247236672 _1_ RTR  --- 16 tcp 1040 [0 0 0 0] ------- [1:0 0:0 30 0] [10 0] 0 0
r 0.247525739 _0_ MAC  --- 0 ACK 38 [0 0 0 0] 
s 0.247895672 _1_ MAC  --- 0 RTS 44 [3dd 0 1 0] 
r 0.248247739 _0_ MAC  --- 0 RTS 44 [3dd 0 1 0] 
s 0.248257739 _0_ MAC  --- 0 CTS 38 [2a3 1 0 0] 
r 0.248561806 _1_ MAC  --- 0 CTS 38 [2a3 1 0 0] 
s 0.248571806 _1_ MAC  --- 10 tcp 1098 [13a 0 1 800] ------- [1:0 0:0 30 0] [6 0] 0 0
r 0.248922985 _0_ MAC  --- 10 tcp 1040 [13a 0 1 800] ------- [1:0 0:0 30 0] [6 0] 1 0
s 0.248932985 _0_ MAC  --- 0 ACK 38 [0 1 0 0] 
r 0.248947985 _0_ AGT  --- 10 tcp 1040 [13a 0 1 800] ------- [1:0 0:0 30 0] [6 0] 1 0
s 0.248947985 _0_ AGT  --- 17 ack 40 [0 0 0 0] ------- [0:0 1:0 32 0] [6 0] 0 0
r 0.248947985 _0_ RTR  --- 17 ack 40 [0 0 0 0] ------- [0:0 1:0 32 0] [6 0] 0 0
s 0.248947985 _0_ RTR  --- 17 ack 40 [0 0 0 0] ------- [0:0 1:0 30 1] [6 0] 0 0
r 0.249237052 _1_ MAC  --- 0 ACK 38 [0 1 0 0] 
s 0.249366985 _0_ MAC  --- 0 RTS 44 [349 1 0 0] 
r 0.249719052 _1_ MAC  --- 0 RTS 44 [349 1 0 0] 
s 0.249729052 _1_ MAC  --- 0 CTS 38 [20f 0 0 0] 
r 0.250033119 _0_ MAC  --- 0 CTS 38 [20f 0 0 0] 
s 0.250043119 _0_ MAC  --- 14 ack 98 [13a 1 0 800] ------- [0:0 1:0 30 1] [5 0] 0 0
r 0.250246149 _1_ MAC  --- 14 ack 40 [13a 1 0 800] ------- [0:0 1:0 30 1] [5 0] 1 0
s 0.250256149 _1_ MAC  --- 0 ACK 38 [0 0 0 0] 
r 0.250271149 _1_ AGT  --- 14 ack 40 [13a 1 0 800] ------- [0:0 1:0 30 1] [5 0] 1 0
s 0.250271149 _1_ AGT  --- 18 tcp 1040 [0 0 0 0] ------- [1:0 0:0 32 0] [11 0] 0 0
r 0.250271149 _1_ RTR  --- 18 tcp 1040 [0 0 0 0] ------- [1:0 0:0 32 0] [11 0] 0 0
s 0.250271149 _1_ AGT  --- 19 tcp 1040 [0 0 0 0] ------- [1:0 0:0 32 0] [12 0] 0 0
r 0.250271149 _1_ RTR  --- 19 tcp 1040 [0 0 0 0] ------- [1:0 0:0 32 0] [12 0] 0 0
s 0.250271149 _1_ RTR  --- 18 tcp 1040 [0 0 0 0] ------- [1:0 0:0 30 0] [11 0] 0 0
s 0.250271149 _1_ RTR  --- 19 tcp 1040 [0 0 0 0] ------- [1:0 0:0 30 0] [12 0] 0 0
r 0.250560216 _0_ MAC  --- 0 ACK 38 [0 0 0 0] 
s 0.250970216 _0_ MAC  --- 0 RTS 44 [349 1 0 0] 
r 0.251322283 _1_ MAC  --- 0 RTS 44 [349 1 0 0] 
s 0.251332283 _1_ MAC  --- 0 CTS 38 [20f 0 0 0] 
r 0.251636350 _0_ MAC  --- 0 CTS 38 [20f 0 0 0] 
s 0.251646350 _0_ MAC  --- 17 ack 98 [13a 1 0 800] ------- [0:0 1:0 30 1] [6 0] 0 0
s 0.252383379 _1_ MAC  --- 0 RTS 44 [3dd 0 1 0] 
r 0.252735446 _0_ MAC  --- 0 RTS 44 [3dd 0 1 0] 
s 0.252745446 _0_ MAC  --- 0 CTS 38 [2a3 1 0 0] 
r 0.253049513 _1_ MAC  --- 0 CTS 38 [2a3 1 0 0] 
s 0.253059513 _1_ MAC  --- 11 tcp 1098 [13a 0 1 800] ------- [1:0 0:0 30 0] [7 0] 0 0
r 0.253410692 _0_ MAC  --- 11 tcp 1040 [13a 0 1 800] ------- [1:0 0:0 30 0] [7 0] 1 0
s 0.253420692 _0_ MAC  --- 0 ACK 38 [0 1 0 0] 
r 0.253435692 _0_ AGT  --- 11 tcp 1040 [13a 0 1 800] ------- [1:0 0:0 30 0] [7 0] 1 0
s 0.253435692 _0_ AGT  --- 20 ack 40 [0 0 0 0] ------- [0:0 1:0 32 0] [7 0] 0 0
r 0.253435692 _0_ RTR  --- 20 ack 40 [0 0 0 0] ------- [0:0 1:0 32 0] [7 0] 0 0
s 0.253435692 _0_ RTR  --- 20 ack 40 [0 0 0 0] ------- [0:0 1:0 30 1] [7 0] 0 0
r 0.253724759 _1_ MAC  --- 0 ACK 38 [0 1 0 0] 
s 0.254074759 _1_ MAC  --- 0 RTS 44 [3dd 0 1 0] 
r 0.254426826 _0_ MAC  --- 0 RTS 44 [3dd 0 1 0] 
s 0.254436826 _0_ MAC  --- 0 CTS 38 [2a3 1 0 0] 
r 0.254740893 _1_ MAC  --- 0 CTS 38 [2a3 1 0 0] 
s 0.254750893 _1_ MAC  --- 12 tcp 1098 [13a 0 1 800] ------- [1:0 0:0 30 0] [8 0] 0 0
r 0.255102071 _0_ MAC  --- 12 tcp 1040 [13a 0 1 800] ------- [1:0 0:0 30 0] [8 0] 1 0
s 0.255112071 _0_ MAC  --- 0 ACK 38 [0 1 0 0] 
r 0.255127071 _0_ AGT  --- 12 tcp 1040 [13a 0 1 800] ------- [1:0 0:0 30 0] [8 0] 1 0
s 0.255127071 _0_ AGT  --- 21 ack 40 [0 0 0 0] ------- [0:0 1:0 32 0] [8 0] 0 0
r 0.255127071 _0_ RTR  --- 21 ack 40 [0 0 0 0] ------- [0:0 1:0 32 0] [8 0] 0 0
s 0.255127071 _0_ RTR  --- 21 ack 40 [0 0 0 0] ------- [0:0 1:0 30 1] [8 0] 0 0
r 0.255416138 _1_ MAC  --- 0 ACK 38 [0 1 0 0] 
s 0.255826138 _1_ MAC  --- 0 RTS 44 [3dd 0 1 0] 
r 0.256178205 _0_ MAC  --- 0 RTS 44 [3dd 0 1 0] 
s 0.256188205 _0_ MAC  --- 0 CTS 38 [2a3 1 0 0] 
s 0.257107205 _0_ MAC  --- 0 RTS 44 [349 1 0 0] 
r 0.257459272 _1_ MAC  --- 0 RTS 44 [349 1 0 0] 
s 0.257469272 _1_ MAC  --- 0 CTS 38 [20f 0 0 0] 
r 0.257773339 _0_ MAC  --- 0 CTS 38 [20f 0 0 0] 
s 0.257783339 _0_ MAC  --- 17 ack 98 [13a 1 0 800] ------- [0:0 1:0 30 1] [6 0] 0 0
s 0.258500369 _1_ MAC  --- 0 RTS 44 [3dd 0 1 0] 
r 0.258852436 _0_ MAC  --- 0 RTS 44 [3dd 0 1 0] 
s 0.258862436 _0_ MAC  --- 0 CTS 38 [2a3 1 0 0] 
r 0.259166503 _1_ MAC  --- 0 CTS 38 [2a3 1 0 0] 
s 0.259176503 _1_ MAC  --- 15 tcp 1098 [13a 0 1 800] ------- [1:0 0:0 30 0] [9 0] 0 0
r 0.259527681 _0_ MAC  --- 15 tcp 1040 [13a 0 1 800] ------- [1:0 0:0 30 0] [9 0] 1 0
s 0.259537681 _0_ MAC  --- 0 ACK 38 [0 1 0 0] 
r 0.259552681 _0_ AGT  --- 15 tcp 1040 [13a 0 1 800] ------- [1:0 0:0 30 0] [9 0] 1 0
s 0.259552681 _0_ AGT  --- 22 ack 40 [0 0 0 0] ------- [0:0 1:0 32 0] [9 0] 0 0
r 0.259552681 _0_ RTR  --- 22 ack 40 [0 0 0 0] ------- [0:0 1:0 32 0] [9 0] 0 0
s 0.259552681 _0_ RTR  --- 22 ack 40 [0 0 0 0] ------- [0:0 1:0 30 1] [9 0] 0 0
r 0.259841748 _1_ MAC  --- 0 ACK 38 [0 1 0 0] 
s 0.260171748 _1_ MAC  --- 0 RTS 44 [3dd 0 1 0] 
s 0.260891748 _1_ MAC  --- 0 RTS 44 [3dd 0 1 0] 
r 0.261243815 _0_ MAC  --- 0 RTS 44 [3dd 0 1 0] 
s 0.261253815 _0_ MAC  --- 0 CTS 38 [2a3 1 0 0] 
r 0.261557882 _1_ MAC  --- 0 CTS 38 [2a3 1 0 0] 
s 0.261567882 _1_ MAC  --- 16 tcp 1098 [13a 0 1 800] ------- [1:0 0:0 30 0] [10 0] 0 0
r 0.261919060 _0_ MAC  --- 16 tcp 1040 [13a 0 1 800] ------- [1:0 0:0 30 0] [10 0] 1 0
s 0.261929060 _0_ MAC  --- 0 ACK 38 [0 1 0 0] 
r 0.261944060 _0_ AGT  --- 16 tcp 1040 [13a 0 1 800] ------- [1:0 0:0 30 0] [10 0] 1 0
s 0.261944060 _0_ AGT  --- 23 ack 40 [0 0 0 0] ------- [0:0 1:0 32 0] [10 0] 0 0
r 0.261944060 _0_ RTR  --- 23 ack 40 [0 0 0 0] ------- [0:0 1:0 32 0] [10 0] 0 0
s 0.261944060 _0_ RTR  --- 23 ack 40 [0 0 0 0] ------- [0:0 1:0 30 1] [10 0] 0 0
r 0.262233127 _1_ MAC  --- 0 ACK 38 [0 1 0 0] 
s 0.262383127 _1_ MAC  --- 0 RTS 44 [3dd 0 1 0] 
r 0.262735194 _0_ MAC  --- 0 RTS 44 [3dd 0 1 0] 
s 0.262745194 _0_ MAC  --- 0 CTS 38 [2a3 1 0 0] 
r 0.263049261 _1_ MAC  --- 0 CTS 38 [2a3 1 0 0] 
s 0.263059261 _1_ MAC  --- 18 tcp 1098 [13a 0 1 800] ------- [1:0 0:0 30 0] [11 0] 0 0
r 0.263410439 _0_ MAC  --- 18 tcp 1040 [13a 0 1 800] ------- [1:0 0:0 30 0] [11 0] 1 0
s 0.263420439 _0_ MAC  --- 0 ACK 38 [0 1 0 0] 
r 0.263435439 _0_ AGT  --- 18 tcp 1040 [13a 0 1 800] ------- [1:0 0:0 30 0] [11 0] 1 0
s 0.263435439 _0_ AGT  --- 24 ack 40 [0 0 0 0] ------- [0:0 1:0 32 0] [11 0] 0 0
r 0.263435439 _0_ RTR  --- 24 ack 40 [0 0 0 0] ------- [0:0 1:0 32 0] [11 0] 0 0
s 0.263435439 _0_ RTR  --- 24 ack 40 [0 0 0 0] ------- [0:0 1:0 30 1] [11 0] 0 0
r 0.263724506 _1_ MAC  --- 0 ACK 38 [0 1 0 0] 
s 0.264294506 _1_ MAC  --- 0 RTS 44 [3dd 0 1 0] 
r 0.264646573 _0_ MAC  --- 0 RTS 44 [3dd 0 1 0] 
s 0.264656573 _0_ MAC  --- 0 CTS 38 [2a3 1 0 0] 
r 0.264960640 _1_ MAC  --- 0 CTS 38 [2a3 1 0 0] 
s 0.264970640 _1_ MAC  --- 19 tcp 1098 [13a 0 1 800] ------- [1:0 0:0 30 0] [12 0] 0 0
r 0.265321818 _0_ MAC  --- 19 tcp 1040 [13a 0 1 800] ------- [1:0 0:0 30 0] [12 0] 1 0
s 0.265331818 _0_ MAC  --- 0 ACK 38 [0 1 0 0] 
r 0.265346818 _0_ AGT  --- 19 tcp 1040 [13a 0 1 800] ------- [1:0 0:0 30 0] [12 0] 1 0
s 0.265346818 _0_ AGT  --- 25 ack 40 [0 0 0 0] ------- [0:0 1:0 32 0] [12 0] 0 0
r 0.265346818 _0_ RTR  --- 25 ack 40 [0 0 0 0] ------- [0:0 1:0 32 0] [12 0] 0 0
s 0.265346818 _0_ RTR  --- 25 ack 40 [0 0 0 0] ------- [0:0 1:0 30 1] [12 0] 0 0
r 0.265635885 _1_ MAC  --- 0 ACK 38 [0 1 0 0] 
s 0.266845818 _0_ MAC  --- 0 RTS 44 [349 1 0 0] 
r 0.267197885 _1_ MAC  --- 0 RTS 44 [349 1 0 0] 
s 0.267207885 _1_ MAC  --- 0 CTS 38 [20f 0 0 0] 
r 0.267511952 _0_ MAC  --- 0 CTS 38 [20f 0 0 0] 
s 0.267521952 _0_ MAC  --- 17 ack 98 [13a 1 0 800] ------- [0:0 1:0 30 1] [6 0] 0 0
r 0.267724982 _1_ MAC  --- 17 ack 40 [13a 1 0 800] ------- [0:0 1:0 30 1] [6 0] 1 0
s 0.267734982 _1_ MAC  --- 0 ACK 38 [0 0 0 0] 
r 0.267749982 _1_ AGT  --- 17 ack 40 [13a 1 0 800] ------- [0:0 1:0 30 1] [6 0] 1 0
s 0.267749982 _1_ AGT  --- 26 tcp 1040 [0 0 0 0] ------- [1:0 0:0 32 0] [13 0] 0 0
r 0.267749982 _1_ RTR  --- 26 tcp 1040 [0 0 0 0] ------- [1:0 0:0 32 0] [13 0] 0 0
s 0.267749982 _1_ AGT  --- 27 tcp 1040 [0 0 0 0] ------- [1:0 0:0 32 0] [14 0] 0 0
r 0.267749982 _1_ RTR  --- 27 tcp 1040 [0 0 0 0] ------- [1:0 0:0 32 0] [14 0] 0 0
s 0.267749982 _1_ RTR  --- 26 tcp 1040 [0 0 0 0] ------- [1:0 0:0 30 0] [13 0] 0 0
s 0.267749982 _1_ RTR  --- 27 tcp 1040 [0 0 0 0] ------- [1:0 0:0 30 0] [14 0] 0 0
r 0.268039049 _0_ MAC  --- 0 ACK 38 [0 0 0 0] 
s 0.268288982 _1_ MAC  --- 0 RTS 44 [3dd 0 1 0] 
r 0.268641049 _0_ MAC  --- 0 RTS 44 [3dd 0 1 0] 
s 0.268651049 _0_ MAC  --- 0 CTS 38 [2a3 1 0 0] 
r 0.268955116 _1_ MAC  --- 0 CTS 38 [2a3 1 0 0] 
s 0.268965116 _1_ MAC  --- 26 tcp 1098 [13a 0 1 800] ------- [1:0 0:0 30 0] [13 0] 0 0
r 0.269316294 _0_ MAC  --- 26 tcp 1040 [13a 0 1 800] ------- [1:0 0:0 30 0] [13 0] 1 0
s 0.269326294 _0_ MAC  --- 0 ACK 38 [0 1 0 0] 
r 0.269341294 _0_ AGT  --- 26 tcp 1040 [13a 0 1 800] ------- [1:0 0:0 30 0] [13 0] 1 0
s 0.269341294 _0_ AGT  --- 28 ack 40 [0 0 0 0] ------- [0:0 1:0 32 0] [13 0] 0 0
r 0.269341294 _0_ RTR  --- 28 ack 40 [0 0 0 0] ------- [0:0 1:0 32 0] [13 0] 0 0
s 0.269341294 _0_ RTR  --- 28 ack 40 [0 0 0 0] ------- [0:0 1:0 30 1] [13 0] 0 0
r 0.269630361 _1_ MAC  --- 0 ACK 38 [0 1 0 0] 
s 0.269740361 _1_ MAC  --- 0 RTS 44 [3dd 0 1 0] 
s 0.270800361 _1_ MAC  --- 0 RTS 44 [3dd 0 1 0] 
s 0.271626428 _0_ MAC  --- 0 RTS 44 [349 1 0 0] 
r 0.271978495 _1_ MAC  --- 0 RTS 44 [349 1 0 0] 
s 0.271988495 _1_ MAC  --- 0 CTS 38 [20f 0 0 0] 
r 0.272292562 _0_ MAC  --- 0 CTS 38 [20f 0 0 0] 
s 0.272302562 _0_ MAC  --- 20 ack 98 [13a 1 0 800] ------- [0:0 1:0 30 1] [7 0] 0 0
r 0.272505592 _1_ MAC  --- 20 ack 40 [13a 1 0 800] ------- [0:0 1:0 30 1] [7 0] 1 0
s 0.272515592 _1_ MAC  --- 0 ACK 38 [0 0 0 0] 
r 0.272530592 _1_ AGT  --- 20 ack 40 [13a 1 0 800] ------- [0:0 1:0 30 1] [7 0] 1 0
s 0.272530592 _1_ AGT  --- 29 tcp 1040 [0 0 0 0] ------- [1:0 0:0 32 0] [15 0] 0 0
r 0.272530592 _1_ RTR  --- 29 tcp 1040 [0 0 0 0] ------- [1:0 0:0 32 0] [15 0] 0 0
s 0.272530592 _1_ AGT  --- 30 tcp 1040 [0 0 0 0] ------- [1:0 0:0 32 0] [16 0] 0 0
r 0.272530592 _1_ RTR  --- 30 tcp 1040 [0 0 0 0] ------- [1:0 0:0 32 0] [16 0] 0 0
s 0.272530592 _1_ RTR  --- 29 tcp 1040 [0 0 0 0] ------- [1:0 0:0 30 0] [15 0] 0 0
s 0.272530592 _1_ RTR  --- 30 tcp 1040 [0 0 0 0] ------- [1:0 0:0 30 0] [16 0] 0 0
r 0.272819659 _0_ MAC  --- 0 ACK 38 [0 0 0 0] 
s 0.273369659 _0_ MAC  --- 0 RTS 44 [349 1 0 0] 
r 0.273721726 _1_ MAC  --- 0 RTS 44 [349 1 0 0] 
s 0.273731726 _1_ MAC  --- 0 CTS 38 [20f 0 0 0] 
r 0.274035793 _0_ MAC  --- 0 CTS 38 [20f 0 0 0] 
s 0.274045793 _0_ MAC  --- 21 ack 98 [13a 1 0 800] ------- [0:0 1:0 30 1] [8 0] 0 0
r 0.274248823 _1_ MAC  --- 21 ack 40 [13a 1 0 800] ------- [0:0 1:0 30 1] [8 0] 1 0
s 0.274258823 _1_ MAC  --- 0 ACK 38 [0 0 0 0] 
r 0.274273823 _1_ AGT  --- 21 ack 40 [13a 1 0 800] ------- [0:0 1:0 30 1] [8 0] 1 0
s 0.274273823 _1_ AGT  --- 31 tcp 1040 [0 0 0 0] ------- [1:0 0:0 32 0] [17 0] 0 0
r 0.274273823 _1_ RTR  --- 31 tcp 1040 [0 0 0 0] ------- [1:0 0:0 32 0] [17 0] 0 0
s 0.274273823 _1_ AGT  --- 32 tcp 1040 [0 0 0 0] ------- [1:0 0:0 32 0] [18 0] 0 0
r 0.274273823 _1_ RTR  --- 32 tcp 1040 [0 0 0 0] ------- [1:0 0:0 32 0] [18 0] 0 0
s 0.274273823 _1_ RTR  --- 31 tcp 1040 [0 0 0 0] ------- [1:0 0:0 30 0] [17 0] 0 0
s 0.274273823 _1_ RTR  --- 32 tcp 1040 [0 0 0 0] ------- [1:0 0:0 30 0] [18 0] 0 0
r 0.274562890 _0_ MAC  --- 0 ACK 38 [0 0 0 0] 
s 0.274892890 _0_ MAC  --- 0 RTS 44 [349 1 0 0] 
r 0.275244957 _1_ MAC  --- 0 RTS 44 [349 1 0 0] 
s 0.275254957 _1_ MAC  --- 0 CTS 38 [20f 0 0 0] 
r 0.275559024 _0_ MAC  --- 0 CTS 38 [20f 0 0 0] 
s 0.275569024 _0_ MAC  --- 22 ack 98 [13a 1 0 800] ------- [0:0 1:0 30 1] [9 0] 0 0
r 0.275772054 _1_ MAC  --- 22 ack 40 [13a 1 0 800] ------- [0:0 1:0 30 1] [9 0] 1 0
s 0.275782054 _1_ MAC  --- 0 ACK 38 [0 0 0 0] 
r 0.275797054 _1_ AGT  --- 22 ack 40 [13a 1 0 800] ------- [0:0 1:0 30 1] [9 0] 1 0
s 0.275797054 _1_ AGT  --- 33 tcp 1040 [0 0 0 0] ------- [1:0 0:0 32 0] [19 0] 0 0
r 0.275797054 _1_ RTR  --- 33 tcp 1040 [0 0 0 0] ------- [1:0 0:0 32 0] [19 0] 0 0
s 0.275797054 _1_ AGT  --- 34 tcp 1040 [0 0 0 0] ------- [1:0 0:0 32 0] [20 0] 0 0
r 0.275797054 _1_ RTR  --- 34 tcp 1040 [0 0 0 0] ------- [1:0 0:0 32 0] [20 0] 0 0
s 0.275797054 _1_ RTR  --- 33 tcp 1040 [0 0 0 0] ------- [1:0 0:0 30 0] [19 0] 0 0
s 0.275797054 _1_ RTR  --- 34 tcp 1040 [0 0 0 0] ------- [1:0 0:0 30 0] [20 0] 0 0
r 0.276086121 _0_ MAC  --- 0 ACK 38 [0 0 0 0] 
s 0.276316121 _0_ MAC  --- 0 RTS 44 [349 1 0 0] 
r 0.276668188 _1_ MAC  --- 0 RTS 44 [349 1 0 0] 
s 0.276678188 _1_ MAC  --- 0 CTS 38 [20f 0 0 0] 
r 0.276982255 _0_ MAC  --- 0 CTS 38 [20f 0 0 0] 
s 0.276992255 _0_ MAC  --- 23 ack 98 [13a 1 0 800] ------- [0:0 1:0 30 1] [10 0] 0 0
r 0.277195285 _1_ MAC  --- 23 ack 40 [13a 1 0 800] ------- [0:0 1:0 30 1] [10 0] 1 0
s 0.277205285 _1_ MAC  --- 0 ACK 38 [0 0 0 0] 
r 0.277220285 _1_ AGT  --- 23 ack 40 [13a 1 0 800] ------- [0:0 1:0 30 1] [10 0] 1 0
s 0.277220285 _1_ AGT  --- 35 tcp 1040 [0 0 0 0] ------- [1:0 0:0 32 0] [21 0] 0 0
r 0.277220285 _1_ RTR  --- 35 tcp 1040 [0 0 0 0] ------- [1:0 0:0 32 0] [21 0] 0 0
s 0.277220285 _1_ AGT  --- 36 tcp 1040 [0 0 0 0] ------- [1:0 0:0 32 0] [22 0] 0 0
r 0.277220285 _1_ RTR  --- 36 tcp 1040 [0 0 0 0] ------- [1:0 0:0 32 0] [22 0] 0 0
s 0.277220285 _1_ RTR  --- 35 tcp 1040 [0 0 0 0] ------- [1:0 0:0 30 0] [21 0] 0 0
s 0.277220285 _1_ RTR  --- 36 tcp 1040 [0 0 0 0] ------- [1:0 0:0 30 0] [22 0] 0 0
r 0.277509352 _0_ MAC  --- 0 ACK 38 [0 0 0 0] 
s 0.277839352 _0_ MAC  --- 0 RTS 44 [349 1 0 0] 
r 0.278191419 _1_ MAC  --- 0 RTS 44 [349 1 0 0] 
s 0.278201419 _1_ MAC  --- 0 CTS 38 [20f 0 0 0] 
r 0.278505486 _0_ MAC  --- 0 CTS 38 [20f 0 0 0] 
s 0.278515486 _0_ MAC  --- 24 ack 98 [13a 1 0 800] ------- [0:0 1:0 30 1] [11 0] 0 0
r 0.278718516 _1_ MAC  --- 24 ack 40 [13a 1 0 800] ------- [0:0 1:0 30 1] [11 0] 1 0
s 0.278728516 _1_ MAC  --- 0 ACK 38 [0 0 0 0] 
r 0.278743516 _1_ AGT  --- 24 ack 40 [13a 1 0 800] ------- [0:0 1:0 30 1] [11 0] 1 0
s 0.278743516 _1_ AGT  --- 37 tcp 1040 [0 0 0 0] ------- [1:0 0:0 32 0] [23 0] 0 0
r 0.278743516 _1_ RTR  --- 37 tcp 1040 [0 0 0 0] ------- [1:0 0:0 32 0] [23 0] 0 0
s 0.278743516 _1_ AGT  --- 38 tcp 1040 [0 0 0 0] ------- [1:0 0:0 32 0] [24 0] 0 0
r 0.278743516 _1_ RTR  --- 38 tcp 1040 [0 0 0 0] ------- [1:0 0:0 32 0] [24 0] 0 0
s 0.278743516 _1_ RTR  --- 37 tcp 1040 [0 0 0 0] ------- [1:0 0:0 30 0] [23 0] 0 0
s 0.278743516 _1_ RTR  --- 38 tcp 1040 [0 0 0 0] ------- [1:0 0:0 30 0] [24 0] 0 0
r 0.279032583 _0_ MAC  --- 0 ACK 38 [0 0 0 0] 
s 0.279122516 _1_ MAC  --- 0 RTS 44 [3dd 0 1 0] 
r 0.279474583 _0_ MAC  --- 0 RTS 44 [3dd 0 1 0] 
s 0.279484583 _0_ MAC  --- 0 CTS 38 [2a3 1 0 0] 
r 0.279788650 _1_ MAC  --- 0 CTS 38 [2a3 1 0 0] 
s 0.279798650 _1_ MAC  --- 27 tcp 1098 [13a 0 1 800] ------- [1:0 0:0 30 0] [14 0] 0 0
r 0.280149828 _0_ MAC  --- 27 tcp 1040 [13a 0 1 800] ------- [1:0 0:0 30 0] [14 0] 1 0
s 0.280159828 _0_ MAC  --- 0 ACK 38 [0 1 0 0] 
r 0.280174828 _0_ AGT  --- 27 tcp 1040 [13a 0 1 800] ------- [1:0 0:0 30 0] [14 0] 1 0
s 0.280174828 _0_ AGT  --- 39 ack 40 [0 0 0 0] ------- [0:0 1:0 32 0] [14 0] 0 0
r 0.280174828 _0_ RTR  --- 39 ack 40 [0 0 0 0] ------- [0:0 1:0 32 0] [14 0] 0 0
s 0.280174828 _0_ RTR  --- 39 ack 40 [0 0 0 0] ------- [0:0 1:0 30 1] [14 0] 0 0
r 0.280463895 _1_ MAC  --- 0 ACK 38 [0 1 0 0] 
s 0.280513895 _1_ MAC  --- 0 RTS 44 [3dd 0 1 0] 
r 0.280865962 _0_ MAC  --- 0 RTS 44 [3dd 0 1 0] 
s 0.280875962 _0_ MAC  --- 0 CTS 38 [2a3 1 0 0] 
r 0.281180029 _1_ MAC  --- 0 CTS 38 [2a3 1 0 0] 
s 0.281190029 _1_ MAC  --- 29 tcp 1098 [13a 0 1 800] ------- [1:0 0:0 30 0] [15 0] 0 0
s 0.282415207 _0_ MAC  --- 0 RTS 44 [349 1 0 0] 
s 0.283661274 _1_ MAC  --- 0 RTS 44 [3dd 0 1 0] 
r 0.284013341 _0_ MAC  --- 0 RTS 44 [3dd 0 1 0] 
s 0.284023341 _0_ MAC  --- 0 CTS 38 [2a3 1 0 0] 
s 0.285102341 _0_ MAC  --- 0 RTS 44 [349 1 0 0] 
r 0.285454408 _1_ MAC  --- 0 RTS 44 [349 1 0 0] 
s 0.285464408 _1_ MAC  --- 0 CTS 38 [20f 0 0 0] 
r 0.285768475 _0_ MAC  --- 0 CTS 38 [20f 0 0 0] 
s 0.285778475 _0_ MAC  --- 25 ack 98 [13a 1 0 800] ------- [0:0 1:0 30 1] [12 0] 0 0