n -t * -s 0  -x 0 -y 0 -Z 0 -z 40  -v circle -c black
n -t * -s 1  -x 0 -y 0 -Z 0 -z 40  -v circle -c black
V -t * -v 1.0a5 -a 0
W -t * -x 1000 -y 1000
A -t * -n 1 -p 0 -o 0x7fffffff -c 30 -a 1
A -t * -h 1 -m 1073741823 -s 0
n -t 0.100000 -s 0 -x 258.000000 -y 500.000000 -U -1000.000000 -V 0.000000 -T 0.008000
n -t 0.100000 -s 1 -x 400.000000 -y 500.000000 -U 1000.000000 -V 0.000000 -T 0.050000
+ -t 0.200000000 -s 1 -d -1 -p tcp -e 40 -c 2 -a 0 -i 0 -k AGT 
- -t 0.200000000 -s 1 -d -1 -p tcp -e 40 -c 2 -a 0 -i 0 -k AGT
h -t 0.200000000 -s 1 -d -1 -p tcp -e 40 -c 2 -a 0 -i 0 -k AGT
+ -t 0.200000000 -s 1 -d -1 -p AODV -e 48 -c 2 -a 0 -i 0 -k RTR 
- -t 0.200000000 -s 1 -d -1 -p AODV -e 48 -c 2 -a 0 -i 0 -k RTR
h -t 0.200000000 -s 1 -d -1 -p AODV -e 48 -c 2 -a 0 -i 0 -k RTR
+ -t 0.200115000 -s 1 -d -1 -p AODV -e 106 -c 2 -a 0 -i 0 -k MAC 
- -t 0.200115000 -s 1 -d -1 -p AODV -e 106 -c 2 -a 0 -i 0 -k MAC
h -t 0.200115000 -s 1 -d -1 -p AODV -e 106 -c 2 -a 0 -i 0 -k MAC
r -t 0.200963667 -s 0 -d -1 -p AODV -e 48 -c 2 -a 0 -i 0 -k MAC
r -t 0.200988667 -s 0 -d -1 -p AODV -e 48 -c 2 -a 0 -i 0 -k RTR
+ -t 0.200988667 -s 0 -d 1 -p AODV -e 44 -c 2 -a 0 -i 0 -k RTR 
- -t 0.200988667 -s 0 -d 1 -p AODV -e 44 -c 2 -a 0 -i 0 -k RTR
h -t 0.200988667 -s 0 -d 1 -p AODV -e 44 -c 2 -a 0 -i 0 -k RTR
+ -t 0.201343667 -s 0 -d -1 -p ARP -e 86 -c 2 -a 0 -i 0 -k MAC 
- -t 0.201343667 -s 0 -d -1 -p ARP -e 86 -c 2 -a 0 -i 0 -k MAC
h -t 0.201343667 -s 0 -d -1 -p ARP -e 86 -c 2 -a 0 -i 0 -k MAC
r -t 0.202032333 -s 1 -d -1 -p ARP -e 28 -c 2 -a 0 -i 0 -k MAC
+ -t 0.202322333 -s 1 -d -1 -p RTS -e 44 -c 2 -a 0 -i 0 -k MAC 
- -t 0.202322333 -s 1 -d -1 -p RTS -e 44 -c 2 -a 0 -i 0 -k MAC
h -t 0.202322333 -s 1 -d -1 -p RTS -e 44 -c 2 -a 0 -i 0 -k MAC
r -t 0.202675000 -s 0 -d -1 -p RTS -e 44 -c 2 -a 0 -i 0 -k MAC
+ -t 0.202685000 -s 0 -d -1 -p CTS -e 38 -c 2 -a 0 -i 0 -k MAC 
- -t 0.202685000 -s 0 -d -1 -p CTS -e 38 -c 2 -a 0 -i 0 -k MAC
h -t 0.202685000 -s 0 -d -1 -p CTS -e 38 -c 2 -a 0 -i 0 -k MAC
r -t 0.202989667 -s 1 -d -1 -p CTS -e 38 -c 2 -a 0 -i 0 -k MAC
+ -t 0.202999667 -s 1 -d -1 -p ARP -e 86 -c 2 -a 0 -i 0 -k MAC 
- -t 0.202999667 -s 1 -d -1 -p ARP -e 86 -c 2 -a 0 -i 0 -k MAC
h -t 0.202999667 -s 1 -d -1 -p ARP -e 86 -c 2 -a 0 -i 0 -k MAC
r -t 0.203201519 -s 0 -d -1 -p ARP -e 28 -c 2 -a 0 -i 0 -k MAC
+ -t 0.203211519 -s 0 -d -1 -p ACK -e 38 -c 2 -a 0 -i 0 -k MAC 
- -t 0.203211519 -s 0 -d -1 -p ACK -e 38 -c 2 -a 0 -i 0 -k MAC
h -t 0.203211519 -s 0 -d -1 -p ACK -e 38 -c 2 -a 0 -i 0 -k MAC
r -t 0.203516185 -s 1 -d -1 -p ACK -e 38 -c 2 -a 0 -i 0 -k MAC
+ -t 0.203645519 -s 0 -d -1 -p RTS -e 44 -c 2 -a 0 -i 0 -k MAC 
- -t 0.203645519 -s 0 -d -1 -p RTS -e 44 -c 2 -a 0 -i 0 -k MAC
h -t 0.203645519 -s 0 -d -1 -p RTS -e 44 -c 2 -a 0 -i 0 -k MAC
r -t 0.203998185 -s 1 -d -1 -p RTS -e 44 -c 2 -a 0 -i 0 -k MAC
+ -t 0.204008185 -s 1 -d -1 -p CTS -e 38 -c 2 -a 0 -i 0 -k MAC 
- -t 0.204008185 -s 1 -d -1 -p CTS -e 38 -c 2 -a 0 -i 0 -k MAC
h -t 0.204008185 -s 1 -d -1 -p CTS -e 38 -c 2 -a 0 -i 0 -k MAC
r -t 0.204312852 -s 0 -d -1 -p CTS -e 38 -c 2 -a 0 -i 0 -k MAC
+ -t 0.204322852 -s 0 -d 1 -p AODV -e 102 -c 2 -a 0 -i 0 -k MAC 
- -t 0.204322852 -s 0 -d 1 -p AODV -e 102 -c 2 -a 0 -i 0 -k MAC
h -t 0.204322852 -s 0 -d 1 -p AODV -e 102 -c 2 -a 0 -i 0 -k MAC
r -t 0.204527074 -s 1 -d 1 -p AODV -e 44 -c 2 -a 0 -i 0 -k MAC
+ -t 0.204537074 -s 1 -d -1 -p ACK -e 38 -c 2 -a 0 -i 0 -k MAC 
- -t 0.204537074 -s 1 -d -1 -p ACK -e 38 -c 2 -a 0 -i 0 -k MAC
h -t 0.204537074 -s 1 -d -1 -p ACK -e 38 -c 2 -a 0 -i 0 -k MAC
+ -t 0.204552074 -s 1 -d 0 -p tcp -e 40 -c 2 -a 0 -i 0 -k RTR 
- -t 0.204552074 -s 1 -d 0 -p tcp -e 40 -c 2 -a 0 -i 0 -k RTR
h -t 0.204552074 -s 1 -d 0 -p tcp -e 40 -c 2 -a 0 -i 0 -k RTR
r -t 0.204841741 -s 0 -d -1 -p ACK -e 38 -c 2 -a 0 -i 0 -k MAC
+ -t 0.205051074 -s 1 -d -1 -p RTS -e 44 -c 2 -a 0 -i 0 -k MAC 
- -t 0.205051074 -s 1 -d -1 -p RTS -e 44 -c 2 -a 0 -i 0 -k MAC
h -t 0.205051074 -s 1 -d -1 -p RTS -e 44 -c 2 -a 0 -i 0 -k MAC
r -t 0.205403741 -s 0 -d -1 -p RTS -e 44 -c 2 -a 0 -i 0 -k MAC
+ -t 0.205413741 -s 0 -d -1 -p CTS -e 38 -c 2 -a 0 -i 0 -k MAC 
- -t 0.205413741 -s 0 -d -1 -p CTS -e 38 -c 2 -a 0 -i 0 -k MAC
h -t 0.205413741 -s 0 -d -1 -p CTS -e 38 -c 2 -a 0 -i 0 -k MAC
r -t 0.205718407 -s 1 -d -1 -p CTS -e 38 -c 2 -a 0 -i 0 -k MAC
+ -t 0.205728407 -s 1 -d 0 -p tcp -e 98 -c 2 -a 0 -i 0 -k MAC 
- -t 0.205728407 -s 1 -d 0 -p tcp -e 98 -c 2 -a 0 -i 0 -k MAC
h -t 0.205728407 -s 1 -d 0 -p tcp -e 98 -c 2 -a 0 -i 0 -k MAC
r -t 0.205932037 -s 0 -d 0 -p tcp -e 40 -c 2 -a 0 -i 0 -k MAC
+ -t 0.205942037 -s 0 -d -1 -p ACK -e 38 -c 2 -a 0 -i 0 -k MAC 
- -t 0.205942037 -s 0 -d -1 -p ACK -e 38 -c 2 -a 0 -i 0 -k MAC
h -t 0.205942037 -s 0 -d -1 -p ACK -e 38 -c 2 -a 0 -i 0 -k MAC
r -t 0.205957037 -s 0 -d 0 -p tcp -e 40 -c 2 -a 0 -i 0 -k AGT
+ -t 0.205957037 -s 0 -d -1 -p ack -e 40 -c 2 -a 0 -i 1 -k AGT 
- -t 0.205957037 -s 0 -d -1 -p ack -e 40 -c 2 -a 0 -i 1 -k AGT
h -t 0.205957037 -s 0 -d -1 -p ack -e 40 -c 2 -a 0 -i 1 -k AGT
+ -t 0.205957037 -s 0 -d 1 -p ack -e 40 -c 2 -a 0 -i 1 -k RTR 
- -t 0.205957037 -s 0 -d 1 -p ack -e 40 -c 2 -a 0 -i 1 -k RTR
h -t 0.205957037 -s 0 -d 1 -p ack -e 40 -c 2 -a 0 -i 1 -k RTR
r -t 0.206246704 -s 1 -d -1 -p ACK -e 38 -c 2 -a 0 -i 0 -k MAC
+ -t 0.206356037 -s 0 -d -1 -p RTS -e 44 -c 2 -a 0 -i 0 -k MAC 
- -t 0.206356037 -s 0 -d -1 -p RTS -e 44 -c 2 -a 0 -i 0 -k MAC
h -t 0.206356037 -s 0 -d -1 -p RTS -e 44 -c 2 -a 0 -i 0 -k MAC
r -t 0.206708704 -s 1 -d -1 -p RTS -e 44 -c 2 -a 0 -i 0 -k MAC
+ -t 0.206718704 -s 1 -d -1 -p CTS -e 38 -c 2 -a 0 -i 0 -k MAC 
- -t 0.206718704 -s 1 -d -1 -p CTS -e 38 -c 2 -a 0 -i 0 -k MAC
h -t 0.206718704 -s 1 -d -1 -p CTS -e 38 -c 2 -a 0 -i 0 -k MAC
r -t 0.207023370 -s 0 -d -1 -p CTS -e 38 -c 2 -a 0 -i 0 -k MAC
+ -t 0.207033370 -s 0 -d 1 -p ack -e 98 -c 2 -a 0 -i 1 -k MAC 
- -t 0.207033370 -s 0 -d 1 -p ack -e 98 -c 2 -a 0 -i 1 -k MAC
h -t 0.207033370 -s 0 -d 1 -p ack -e 98 -c 2 -a 0 -i 1 -k MAC
r -t 0.207237000 -s 1 -d 1 -p ack -e 40 -c 2 -a 0 -i 1 -k MAC
+ -t 0.207247000 -s 1 -d -1 -p ACK -e 38 -c 2 -a 0 -i 0 -k MAC 
- -t 0.207247000 -s 1 -d -1 -p ACK -e 38 -c 2 -a 0 -i 0 -k MAC
h -t 0.207247000 -s 1 -d -1 -p ACK -e 38 -c 2 -a 0 -i 0 -k MAC
r -t 0.207262000 -s 1 -d 1 -p ack -e 40 -c 2 -a 0 -i 1 -k AGT
+ -t 0.207262000 -s 1 -d -1 -p tcp -e 1040 -c 2 -a 0 -i 2 -k AGT 
- -t 0.207262000 -s 1 -d -1 -p tcp -e 1040 -c 2 -a 0 -i 2 -k AGT
h -t 0.207262000 -s 1 -d -1 -p tcp -e 1040 -c 2 -a 0 -i 2 -k AGT
+ -t 0.207262000 -s 1 -d -1 -p tcp -e 1040 -c 2 -a 0 -i 3 -k AGT 
- -t 0.207262000 -s 1 -d -1 -p tcp -e 1040 -c 2 -a 0 -i 3 -k AGT
h -t 0.207262000 -s 1 -d -1 -p tcp -e 1040 -c 2 -a 0 -i 3 -k AGT
+ -t 0.207262000 -s 1 -d 0 -p tcp -e 1040 -c 2 -a 0 -i 2 -k RTR 
- -t 0.207262000 -s 1 -d 0 -p tcp -e 1040 -c 2 -a 0 -i 2 -k RTR
h -t 0.207262000 -s 1 -d 0 -p tcp -e 1040 -c 2 -a 0 -i 2 -k RTR
+ -t 0.207262000 -s 1 -d 0 -p tcp -e 1040 -c 2 -a 0 -i 3 -k RTR 
- -t 0.207262000 -s 1 -d 0 -p tcp -e 1040 -c 2 -a 0 -i 3 -k RTR
h -t 0.207262000 -s 1 -d 0 -p tcp -e 1040 -c 2 -a 0 -i 3 -k RTR
r -t 0.207551667 -s 0 -d -1 -p ACK -e 38 -c 2 -a 0 -i 0 -k MAC
+ -t 0.207781000 -s 1 -d -1 -p RTS -e 44 -c 2 -a 0 -i 0 -k MAC 
- -t 0.207781000 -s 1 -d -1 -p RTS -e 44 -c 2 -a 0 -i 0 -k MAC
h -t 0.207781000 -s 1 -d -1 -p RTS -e 44 -c 2 -a 0 -i 0 -k MAC
r -t 0.208133667 -s 0 -d -1 -p RTS -e 44 -c 2 -a 0 -i 0 -k MAC
+ -t 0.208143667 -s 0 -d -1 -p CTS -e 38 -c 2 -a 0 -i 0 -k MAC 
- -t 0.208143667 -s 0 -d -1 -p CTS -e 38 -c 2 -a 0 -i 0 -k MAC
h -t 0.208143667 -s 0 -d -1 -p CTS -e 38 -c 2 -a 0 -i 0 -k MAC
r -t 0.208448333 -s 1 -d -1 -p CTS -e 38 -c 2 -a 0 -i 0 -k MAC
+ -t 0.208458333 -s 1 -d 0 -p tcp -e 1098 -c 2 -a 0 -i 2 -k MAC 
- -t 0.208458333 -s 1 -d 0 -p tcp -e 1098 -c 2 -a 0 -i 2 -k MAC
h -t 0.208458333 -s 1 -d 0 -p tcp -e 1098 -c 2 -a 0 -i 2 -k MAC
r -t 0.208810111 -s 0 -d 0 -p tcp -e 1040 -c 2 -a 0 -i 2 -k MAC
+ -t 0.208820111 -s 0 -d -1 -p ACK -e 38 -c 2 -a 0 -i 0 -k MAC 
- -t 0.208820111 -s 0 -d -1 -p ACK -e 38 -c 2 -a 0 -i 0 -k MAC
h -t 0.208820111 -s 0 -d -1 -p ACK -e 38 -c 2 -a 0 -i 0 -k MAC
r -t 0.208835111 -s 0 -d 0 -p tcp -e 1040 -c 2 -a 0 -i 2 -k AGT
+ -t 0.208835111 -s 0 -d -1 -p ack -e 40 -c 2 -a 0 -i 4 -k AGT 
- -t 0.208835111 -s 0 -d -1 -p ack -e 40 -c 2 -a 0 -i 4 -k AGT
h -t 0.208835111 -s 0 -d -1 -p ack -e 40 -c 2 -a 0 -i 4 -k AGT
+ -t 0.208835111 -s 0 -d 1 -p ack -e 40 -c 2 -a 0 -i 4 -k RTR 
- -t 0.208835111 -s 0 -d 1 -p ack -e 40 -c 2 -a 0 -i 4 -k RTR
h -t 0.208835111 -s 0 -d 1 -p ack -e 40 -c 2 -a 0 -i 4 -k RTR
r -t 0.209124778 -s 1 -d -1 -p ACK -e 38 -c 2 -a 0 -i 0 -k MAC
+ -t 0.209354111 -s 0 -d -1 -p RTS -e 44 -c 2 -a 0 -i 0 -k MAC 
- -t 0.209354111 -s 0 -d -1 -p RTS -e 44 -c 2 -a 0 -i 0 -k MAC
h -t 0.209354111 -s 0 -d -1 -p RTS -e 44 -c 2 -a 0 -i 0 -k MAC
r -t 0.209706778 -s 1 -d -1 -p RTS -e 44 -c 2 -a 0 -i 0 -k MAC
+ -t 0.209716778 -s 1 -d -1 -p CTS -e 38 -c 2 -a 0 -i 0 -k MAC 
- -t 0.209716778 -s 1 -d -1 -p CTS -e 38 -c 2 -a 0 -i 0 -k MAC
h -t 0.209716778 -s 1 -d -1 -p CTS -e 38 -c 2 -a 0 -i 0 -k MAC
r -t 0.210021444 -s 0 -d -1 -p CTS -e 38 -c 2 -a 0 -i 0 -k MAC
+ -t 0.210031444 -s 0 -d 1 -p ack -e 98 -c 2 -a 0 -i 4 -k MAC 
- -t 0.210031444 -s 0 -d 1 -p ack -e 98 -c 2 -a 0 -i 4 -k MAC
h -t 0.210031444 -s 0 -d 1 -p ack -e 98 -c 2 -a 0 -i 4 -k MAC
r -t 0.210235074 -s 1 -d 1 -p ack -e 40 -c 2 -a 0 -i 4 -k MAC
+ -t 0.210245074 -s 1 -d -1 -p ACK -e 38 -c 2 -a 0 -i 0 -k MAC 
- -t 0.210245074 -s 1 -d -1 -p ACK -e 38 -c 2 -a 0 -i 0 -k MAC
h -t 0.210245074 -s 1 -d -1 -p ACK -e 38 -c 2 -a 0 -i 0 -k MAC
r -t 0.210260074 -s 1 -d 1 -p ack -e 40 -c 2 -a 0 -i 4 -k AGT
+ -t 0.210260074 -s 1 -d -1 -p tcp -e 1040 -c 2 -a 0 -i 5 -k AGT 
- -t 0.210260074 -s 1 -d -1 -p tcp -e 1040 -c 2 -a 0 -i 5 -k AGT
h -t 0.210260074 -s 1 -d -1 -p tcp -e 1040 -c 2 -a 0 -i 5 -k AGT
+ -t 0.210260074 -s 1 -d -1 -p tcp -e 1040 -c 2 -a 0 -i 6 -k AGT 
- -t 0.210260074 -s 1 -d -1 -p tcp -e 1040 -c 2 -a 0 -i 6 -k AGT
h -t 0.210260074 -s 1 -d -1 -p tcp -e 1040 -c 2 -a 0 -i 6 -k AGT
+ -t 0.210260074 -s 1 -d 0 -p tcp -e 1040 -c 2 -a 0 -i 5 -k RTR 
- -t 0.210260074 -s 1 -d 0 -p tcp -e 1040 -c 2 -a 0 -i 5 -k RTR
h -t 0.210260074 -s 1 -d 0 -p tcp -e 1040 -c 2 -a 0 -i 5 -k RTR
+ -t 0.210260074 -s 1 -d 0 -p tcp -e 1040 -c 2 -a 0 -i 6 -k RTR 
- -t 0.210260074 -s 1 -d 0 -p tcp -e 1040 -c 2 -a 0 -i 6 -k RTR
h -t 0.210260074 -s 1 -d 0 -p tcp -e 1040 -c 2 -a 0 -i 6 -k RTR
r -t 0.210549741 -s 0 -d -1 -p ACK -e 38 -c 2 -a 0 -i 0 -k MAC
+ -t 0.210679074 -s 1 -d -1 -p RTS -e 44 -c 2 -a 0 -i 0 -k MAC 
- -t 0.210679074 -s 1 -d -1 -p RTS -e 44 -c 2 -a 0 -i 0 -k MAC
h -t 0.210679074 -s 1 -d -1 -p RTS -e 44 -c 2 -a 0 -i 0 -k MAC
r -t 0.211031741 -s 0 -d -1 -p RTS -e 44 -c 2 -a 0 -i 0 -k MAC
+ -t 0.211041741 -s 0 -d -1 -p CTS -e 38 -c 2 -a 0 -i 0 -k MAC 
- -t 0.211041741 -s 0 -d -1 -p CTS -e 38 -c 2 -a 0 -i 0 -k MAC
h -t 0.211041741 -s 0 -d -1 -p CTS -e 38 -c 2 -a 0 -i 0 -k MAC
r -t 0.211346407 -s 1 -d -1 -p CTS -e 38 -c 2 -a 0 -i 0 -k MAC
+ -t 0.211356407 -s 1 -d 0 -p tcp -e 1098 -c 2 -a 0 -i 3 -k MAC 
- -t 0.211356407 -s 1 -d 0 -p tcp -e 1098 -c 2 -a 0 -i 3 -k MAC
h -t 0.211356407 -s 1 -d 0 -p tcp -e 1098 -c 2 -a 0 -i 3 -k MAC
r -t 0.211708185 -s 0 -d 0 -p tcp -e 1040 -c 2 -a 0 -i 3 -k MAC
+ -t 0.211718185 -s 0 -d -1 -p ACK -e 38 -c 2 -a 0 -i 0 -k MAC 
- -t 0.211718185 -s 0 -d -1 -p ACK -e 38 -c 2 -a 0 -i 0 -k MAC
h -t 0.211718185 -s 0 -d -1 -p ACK -e 38 -c 2 -a 0 -i 0 -k MAC
r -t 0.211733185 -s 0 -d 0 -p tcp -e 1040 -c 2 -a 0 -i 3 -k AGT
+ -t 0.211733185 -s 0 -d -1 -p ack -e 40 -c 2 -a 0 -i 7 -k AGT 
- -t 0.211733185 -s 0 -d -1 -p ack -e 40 -c 2 -a 0 -i 7 -k AGT
h -t 0.211733185 -s 0 -d -1 -p ack -e 40 -c 2 -a 0 -i 7 -k AGT
+ -t 0.211733185 -s 0 -d 1 -p ack -e 40 -c 2 -a 0 -i 7 -k RTR 
- -t 0.211733185 -s 0 -d 1 -p ack -e 40 -c 2 -a 0 -i 7 -k RTR
h -t 0.211733185 -s 0 -d 1 -p ack -e 40 -c 2 -a 0 -i 7 -k RTR
r -t 0.212022852 -s 1 -d -1 -p ACK -e 38 -c 2 -a 0 -i 0 -k MAC
+ -t 0.212112852 -s 1 -d -1 -p RTS -e 44 -c 2 -a 0 -i 0 -k MAC 
- -t 0.212112852 -s 1 -d -1 -p RTS -e 44 -c 2 -a 0 -i 0 -k MAC
h -t 0.212112852 -s 1 -d -1 -p RTS -e 44 -c 2 -a 0 -i 0 -k MAC
r -t 0.212465519 -s 0 -d -1 -p RTS -e 44 -c 2 -a 0 -i 0 -k MAC
+ -t 0.212475519 -s 0 -d -1 -p CTS -e 38 -c 2 -a 0 -i 0 -k MAC 
- -t 0.212475519 -s 0 -d -1 -p CTS -e 38 -c 2 -a 0 -i 0 -k MAC
h -t 0.212475519 -s 0 -d -1 -p CTS -e 38 -c 2 -a 0 -i 0 -k MAC
r -t 0.212780185 -s 1 -d -1 -p CTS -e 38 -c 2 -a 0 -i 0 -k MAC
+ -t 0.212790185 -s 1 -d 0 -p tcp -e 1098 -c 2 -a 0 -i 5 -k MAC 
- -t 0.212790185 -s 1 -d 0 -p tcp -e 1098 -c 2 -a 0 -i 5 -k MAC
h -t 0.212790185 -s 1 -d 0 -p tcp -e 1098 -c 2 -a 0 -i 5 -k MAC
r -t 0.213141963 -s 0 -d 0 -p tcp -e 1040 -c 2 -a 0 -i 5 -k MAC
+ -t 0.213151963 -s 0 -d -1 -p ACK -e 38 -c 2 -a 0 -i 0 -k MAC 
- -t 0.213151963 -s 0 -d -1 -p ACK -e 38 -c 2 -a 0 -i 0 -k MAC
h -t 0.213151963 -s 0 -d -1 -p ACK -e 38 -c 2 -a 0 -i 0 -k MAC
r -t 0.213166963 -s 0 -d 0 -p tcp -e 1040 -c 2 -a 0 -i 5 -k AGT
+ -t 0.213166963 -s 0 -d -1 -p ack -e 40 -c 2 -a 0 -i 8 -k AGT 
- -t 0.213166963 -s 0 -d -1 -p ack -e 40 -c 2 -a 0 -i 8 -k AGT
h -t 0.213166963 -s 0 -d -1 -p ack -e 40 -c 2 -a 0 -i 8 -k AGT
+ -t 0.213166963 -s 0 -d 1 -p ack -e 40 -c 2 -a 0 -i 8 -k RTR 
- -t 0.213166963 -s 0 -d 1 -p ack -e 40 -c 2 -a 0 -i 8 -k RTR
h -t 0.213166963 -s 0 -d 1 -p ack -e 40 -c 2 -a 0 -i 8 -k RTR
r -t 0.213456630 -s 1 -d -1 -p ACK -e 38 -c 2 -a 0 -i 0 -k MAC
+ -t 0.213645963 -s 0 -d -1 -p RTS -e 44 -c 2 -a 0 -i 0 -k MAC 
- -t 0.213645963 -s 0 -d -1 -p RTS -e 44 -c 2 -a 0 -i 0 -k MAC
h -t 0.213645963 -s 0 -d -1 -p RTS -e 44 -c 2 -a 0 -i 0 -k MAC
r -t 0.213998630 -s 1 -d -1 -p RTS -e 44 -c 2 -a 0 -i 0 -k MAC
+ -t 0.214008630 -s 1 -d -1 -p CTS -e 38 -c 2 -a 0 -i 0 -k MAC 
- -t 0.214008630 -s 1 -d -1 -p CTS -e 38 -c 2 -a 0 -i 0 -k MAC
h -t 0.214008630 -s 1 -d -1 -p CTS -e 38 -c 2 -a 0 -i 0 -k MAC
r -t 0.214313296 -s 0 -d -1 -p CTS -e 38 -c 2 -a 0 -i 0 -k MAC
+ -t 0.214323296 -s 0 -d 1 -p ack -e 98 -c 2 -a 0 -i 7 -k MAC 
- -t 0.214323296 -s 0 -d 1 -p ack -e 98 -c 2 -a 0 -i 7 -k MAC
h -t 0.214323296 -s 0 -d 1 -p ack -e 98 -c 2 -a 0 -i 7 -k MAC
r -t 0.214526926 -s 1 -d 1 -p ack -e 40 -c 2 -a 0 -i 7 -k MAC
+ -t 0.214536926 -s 1 -d -1 -p ACK -e 38 -c 2 -a 0 -i 0 -k MAC 
- -t 0.214536926 -s 1 -d -1 -p ACK -e 38 -c 2 -a 0 -i 0 -k MAC
h -t 0.214536926 -s 1 -d -1 -p ACK -e 38 -c 2 -a 0 -i 0 -k MAC
r -t 0.214551926 -s 1 -d 1 -p ack -e 40 -c 2 -a 0 -i 7 -k AGT
+ -t 0.214551926 -s 1 -d -1 -p tcp -e 1040 -c 2 -a 0 -i 9 -k AGT 
- -t 0.214551926 -s 1 -d -1 -p tcp -e 1040 -c 2 -a 0 -i 9 -k AGT
h -t 0.214551926 -s 1 -d -1 -p tcp -e 1040 -c 2 -a 0 -i 9 -k AGT
+ -t 0.214551926 -s 1 -d -1 -p tcp -e 1040 -c 2 -a 0 -i 10 -k AGT 
- -t 0.214551926 -s 1 -d -1 -p tcp -e 1040 -c 2 -a 0 -i 10 -k AGT
h -t 0.214551926 -s 1 -d -1 -p tcp -e 1040 -c 2 -a 0 -i 10 -k AGT
+ -t 0.214551926 -s 1 -d 0 -p tcp -e 1040 -c 2 -a 0 -i 9 -k RTR 
- -t 0.214551926 -s 1 -d 0 -p tcp -e 1040 -c 2 -a 0 -i 9 -k RTR
h -t 0.214551926 -s 1 -d 0 -p tcp -e 1040 -c 2 -a 0 -i 9 -k RTR
+ -t 0.214551926 -s 1 -d 0 -p tcp -e 1040 -c 2 -a 0 -i 10 -k RTR 
- -t 0.214551926 -s 1 -d 0 -p tcp -e 1040 -c 2 -a 0 -i 10 -k RTR
h -t 0.214551926 -s 1 -d 0 -p tcp -e 1040 -c 2 -a 0 -i 10 -k RTR
r -t 0.214841593 -s 0 -d -1 -p ACK -e 38 -c 2 -a 0 -i 0 -k MAC
+ -t 0.215051593 -s 0 -d -1 -p RTS -e 44 -c 2 -a 0 -i 0 -k MAC 
- -t 0.215051593 -s 0 -d -1 -p RTS -e 44 -c 2 -a 0 -i 0 -k MAC
h -t 0.215051593 -s 0 -d -1 -p RTS -e 44 -c 2 -a 0 -i 0 -k MAC
r -t 0.215404259 -s 1 -d -1 -p RTS -e 44 -c 2 -a 0 -i 0 -k MAC
+ -t 0.215414259 -s 1 -d -1 -p CTS -e 38 -c 2 -a 0 -i 0 -k MAC 
- -t 0.215414259 -s 1 -d -1 -p CTS -e 38 -c 2 -a 0 -i 0 -k MAC
h -t 0.215414259 -s 1 -d -1 -p CTS -e 38 -c 2 -a 0 -i 0 -k MAC
r -t 0.215718926 -s 0 -d -1 -p CTS -e 38 -c 2 -a 0 -i 0 -k MAC
+ -t 0.215728926 -s 0 -d 1 -p ack -e 98 -c 2 -a 0 -i 8 -k MAC 
- -t 0.215728926 -s 0 -d 1 -p ack -e 98 -c 2 -a 0 -i 8 -k MAC
h -t 0.215728926 -s 0 -d 1 -p ack -e 98 -c 2 -a 0 -i 8 -k MAC
r -t 0.215932556 -s 1 -d 1 -p ack -e 40 -c 2 -a 0 -i 8 -k MAC
+ -t 0.215942556 -s 1 -d -1 -p ACK -e 38 -c 2 -a 0 -i 0 -k MAC 
- -t 0.215942556 -s 1 -d -1 -p ACK -e 38 -c 2 -a 0 -i 0 -k MAC
h -t 0.215942556 -s 1 -d -1 -p ACK -e 38 -c 2 -a 0 -i 0 -k MAC
r -t 0.215957556 -s 1 -d 1 -p ack -e 40 -c 2 -a 0 -i 8 -k AGT
+ -t 0.215957556 -s 1 -d -1 -p tcp -e 1040 -c 2 -a 0 -i 11 -k AGT 
- -t 0.215957556 -s 1 -d -1 -p tcp -e 1040 -c 2 -a 0 -i 11 -k AGT
h -t 0.215957556 -s 1 -d -1 -p tcp -e 1040 -c 2 -a 0 -i 11 -k AGT
+ -t 0.215957556 -s 1 -d -1 -p tcp -e 1040 -c 2 -a 0 -i 12 -k AGT 
- -t 0.215957556 -s 1 -d -1 -p tcp -e 1040 -c 2 -a 0 -i 12 -k AGT
h -t 0.215957556 -s 1 -d -1 -p tcp -e 1040 -c 2 -a 0 -i 12 -k AGT
+ -t 0.215957556 -s 1 -d 0 -p tcp -e 1040 -c 2 -a 0 -i 11 -k RTR 
- -t 0.215957556 -s 1 -d 0 -p tcp -e 1040 -c 2 -a 0 -i 11 -k RTR
h -t 0.215957556 -s 1 -d 0 -p tcp -e 1040 -c 2 -a 0 -i 11 -k RTR
+ -t 0.215957556 -s 1 -d 0 -p tcp -e 1040 -c 2 -a 0 -i 12 -k RTR 
- -t 0.215957556 -s 1 -d 0 -p tcp -e 1040 -c 2 -a 0 -i 12 -k RTR
h -t 0.215957556 -s 1 -d 0 -p tcp -e 1040 -c 2 -a 0 -i 12 -k RTR
r -t 0.216247222 -s 0 -d -1 -p ACK -e 38 -c 2 -a 0 -i 0 -k MAC
+ -t 0.216536556 -s 1 -d -1 -p RTS -e 44 -c 2 -a 0 -i 0 -k MAC 
- -t 0.216536556 -s 1 -d -1 -p RTS -e 44 -c 2 -a 0 -i 0 -k MAC
h -t 0.216536556 -s 1 -d -1 -p RTS -e 44 -c 2 -a 0 -i 0 -k MAC
r -t 0.216889222 -s 0 -d -1 -p RTS -e 44 -c 2 -a 0 -i 0 -k MAC
+ -t 0.216899222 -s 0 -d -1 -p CTS -e 38 -c 2 -a 0 -i 0 -k MAC 
- -t 0.216899222 -s 0 -d -1 -p CTS -e 38 -c 2 -a 0 -i 0 -k MAC
h -t 0.216899222 -s 0 -d -1 -p CTS -e 38 -c 2 -a 0 -i 0 -k MAC
r -t 0.217203889 -s 1 -d -1 -p CTS -e 38 -c 2 -a 0 -i 0 -k MAC
+ -t 0.217213889 -s 1 -d 0 -p tcp -e 1098 -c 2 -a 0 -i 6 -k MAC 
- -t 0.217213889 -s 1 -d 0 -p tcp -e 1098 -c 2 -a 0 -i 6 -k MAC
h -t 0.217213889 -s 1 -d 0 -p tcp -e 1098 -c 2 -a 0 -i 6 -k MAC
r -t 0.217565667 -s 0 -d 0 -p tcp -e 1040 -c 2 -a 0 -i 6 -k MAC
+ -t 0.217575667 -s 0 -d -1 -p ACK -e 38 -c 2 -a 0 -i 0 -k MAC 
- -t 0.217575667 -s 0 -d -1 -p ACK -e 38 -c 2 -a 0 -i 0 -k MAC
h -t 0.217575667 -s 0 -d -1 -p ACK -e 38 -c 2 -a 0 -i 0 -k MAC
r -t 0.217590667 -s 0 -d 0 -p tcp -e 1040 -c 2 -a 0 -i 6 -k AGT
+ -t 0.217590667 -s 0 -d -1 -p ack -e 40 -c 2 -a 0 -i 13 -k AGT 
- -t 0.217590667 -s 0 -d -1 -p ack -e 40 -c 2 -a 0 -i 13 -k AGT
h -t 0.217590667 -s 0 -d -1 -p ack -e 40 -c 2 -a 0 -i 13 -k AGT
+ -t 0.217590667 -s 0 -d 1 -p ack -e 40 -c 2 -a 0 -i 13 -k RTR 
- -t 0.217590667 -s 0 -d 1 -p ack -e 40 -c 2 -a 0 -i 13 -k RTR
h -t 0.217590667 -s 0 -d 1 -p ack -e 40 -c 2 -a 0 -i 13 -k RTR
r -t 0.217880333 -s 1 -d -1 -p ACK -e 38 -c 2 -a 0 -i 0 -k MAC
+ -t 0.218049667 -s 0 -d -1 -p RTS -e 44 -c 2 -a 0 -i 0 -k MAC 
- -t 0.218049667 -s 0 -d -1 -p RTS -e 44 -c 2 -a 0 -i 0 -k MAC
h -t 0.218049667 -s 0 -d -1 -p RTS -e 44 -c 2 -a 0 -i 0 -k MAC
r -t 0.218402333 -s 1 -d -1 -p RTS -e 44 -c 2 -a 0 -i 0 -k MAC
+ -t 0.218412333 -s 1 -d -1 -p CTS -e 38 -c 2 -a 0 -i 0 -k MAC 
- -t 0.218412333 -s 1 -d -1 -p CTS -e 38 -c 2 -a 0 -i 0 -k MAC
h -t 0.218412333 -s 1 -d -1 -p CTS -e 38 -c 2 -a 0 -i 0 -k MAC
r -t 0.218717000 -s 0 -d -1 -p CTS -e 38 -c 2 -a 0 -i 0 -k MAC
+ -t 0.218727000 -s 0 -d 1 -p ack -e 98 -c 2 -a 0 -i 13 -k MAC 
- -t 0.218727000 -s 0 -d 1 -p ack -e 98 -c 2 -a 0 -i 13 -k MAC
h -t 0.218727000 -s 0 -d 1 -p ack -e 98 -c 2 -a 0 -i 13 -k MAC
r -t 0.218930630 -s 1 -d 1 -p ack -e 40 -c 2 -a 0 -i 13 -k MAC
+ -t 0.218940630 -s 1 -d -1 -p ACK -e 38 -c 2 -a 0 -i 0 -k MAC 
- -t 0.218940630 -s 1 -d -1 -p ACK -e 38 -c 2 -a 0 -i 0 -k MAC
h -t 0.218940630 -s 1 -d -1 -p ACK -e 38 -c 2 -a 0 -i 0 -k MAC
r -t 0.218955630 -s 1 -d 1 -p ack -e 40 -c 2 -a 0 -i 13 -k AGT
+ -t 0.218955630 -s 1 -d -1 -p tcp -e 1040 -c 2 -a 0 -i 14 -k AGT 
- -t 0.218955630 -s 1 -d -1 -p tcp -e 1040 -c 2 -a 0 -i 14 -k AGT
h -t 0.218955630 -s 1 -d -1 -p tcp -e 1040 -c 2 -a 0 -i 14 -k AGT
+ -t 0.218955630 -s 1 -d -1 -p tcp -e 1040 -c 2 -a 0 -i 15 -k AGT 
- -t 0.218955630 -s 1 -d -1 -p tcp -e 1040 -c 2 -a 0 -i 15 -k AGT
h -t 0.218955630 -s 1 -d -1 -p tcp -e 1040 -c 2 -a 0 -i 15 -k AGT
+ -t 0.218955630 -s 1 -d 0 -p tcp -e 1040 -c 2 -a 0 -i 14 -k RTR 
- -t 0.218955630 -s 1 -d 0 -p tcp -e 1040 -c 2 -a 0 -i 14 -k RTR
h -t 0.218955630 -s 1 -d 0 -p tcp -e 1040 -c 2 -a 0 -i 14 -k RTR
+ -t 0.218955630 -s 1 -d 0 -p tcp -e 1040 -c 2 -a 0 -i 15 -k RTR 
- -t 0.218955630 -s 1 -d 0 -p tcp -e 1040 -c 2 -a 0 -i 15 -k RTR
h -t 0.218955630 -s 1 -d 0 -p tcp -e 1040 -c 2 -a 0 -i 15 -k RTR
r -t 0.219245296 -s 0 -d -1 -p ACK -e 38 -c 2 -a 0 -i 0 -k MAC
+ -t 0.219414630 -s 1 -d -1 -p RTS -e 44 -c 2 -a 0 -i 0 -k MAC 
- -t 0.219414630 -s 1 -d -1 -p RTS -e 44 -c 2 -a 0 -i 0 -k MAC
h -t 0.219414630 -s 1 -d -1 -p RTS -e 44 -c 2 -a 0 -i 0 -k MAC
r -t 0.219767296 -s 0 -d -1 -p RTS -e 44 -c 2 -a 0 -i 0 -k MAC
+ -t 0.219777296 -s 0 -d -1 -p CTS -e 38 -c 2 -a 0 -i 0 -k MAC 
- -t 0.219777296 -s 0 -d -1 -p CTS -e 38 -c 2 -a 0 -i 0 -k MAC
h -t 0.219777296 -s 0 -d -1 -p CTS -e 38 -c 2 -a 0 -i 0 -k MAC
r -t 0.220081963 -s 1 -d -1 -p CTS -e 38 -c 2 -a 0 -i 0 -k MAC
+ -t 0.220091963 -s 1 -d 0 -p tcp -e 1098 -c 2 -a 0 -i 9 -k MAC 
- -t 0.220091963 -s 1 -d 0 -p tcp -e 1098 -c 2 -a 0 -i 9 -k MAC
h -t 0.220091963 -s 1 -d 0 -p tcp -e 1098 -c 2 -a 0 -i 9 -k MAC
r -t 0.220443741 -s 0 -d 0 -p tcp -e 1040 -c 2 -a 0 -i 9 -k MAC
+ -t 0.220453741 -s 0 -d -1 -p ACK -e 38 -c 2 -a 0 -i 0 -k MAC 
- -t 0.220453741 -s 0 -d -1 -p ACK -e 38 -c 2 -a 0 -i 0 -k MAC
h -t 0.220453741 -s 0 -d -1 -p ACK -e 38 -c 2 -a 0 -i 0 -k MAC
r -t 0.220468741 -s 0 -d 0 -p tcp -e 1040 -c 2 -a 0 -i 9 -k AGT
+ -t 0.220468741 -s 0 -d -1 -p ack -e 40 -c 2 -a 0 -i 16 -k AGT 
- -t 0.220468741 -s 0 -d -1 -p ack -e 40 -c 2 -a 0 -i 16 -k AGT
h -t 0.220468741 -s 0 -d -1 -p ack -e 40 -c 2 -a 0 -i 16 -k AGT
+ -t 0.220468741 -s 0 -d 1 -p ack -e 40 -c 2 -a 0 -i 16 -k RTR 
- -t 0.220468741 -s 0 -d 1 -p ack -e 40 -c 2 -a 0 -i 16 -k RTR
h -t 0.220468741 -s 0 -d 1 -p ack -e 40 -c 2 -a 0 -i 16 -k RTR
r -t 0.220758407 -s 1 -d -1 -p ACK -e 38 -c 2 -a 0 -i 0 -k MAC
+ -t 0.220847741 -s 0 -d -1 -p RTS -e 44 -c 2 -a 0 -i 0 -k MAC 
- -t 0.220847741 -s 0 -d -1 -p RTS -e 44 -c 2 -a 0 -i 0 -k MAC
h -t 0.220847741 -s 0 -d -1 -p RTS -e 44 -c 2 -a 0 -i 0 -k MAC
r -t 0.221200407 -s 1 -d -1 -p RTS -e 44 -c 2 -a 0 -i 0 -k MAC
+ -t 0.221210407 -s 1 -d -1 -p CTS -e 38 -c 2 -a 0 -i 0 -k MAC 
- -t 0.221210407 -s 1 -d -1 -p CTS -e 38 -c 2 -a 0 -i 0 -k MAC
h -t 0.221210407 -s 1 -d -1 -p CTS -e 38 -c 2 -a 0 -i 0 -k MAC
r -t 0.221515074 -s 0 -d -1 -p CTS -e 38 -c 2 -a 0 -i 0 -k MAC
+ -t 0.221525074 -s 0 -d 1 -p ack -e 98 -c 2 -a 0 -i 16 -k MAC 
- -t 0.221525074 -s 0 -d 1 -p ack -e 98 -c 2 -a 0 -i 16 -k MAC
h -t 0.221525074 -s 0 -d 1 -p ack -e 98 -c 2 -a 0 -i 16 -k MAC
r -t 0.221728704 -s 1 -d 1 -p ack -e 40 -c 2 -a 0 -i 16 -k MAC
+ -t 0.221738704 -s 1 -d -1 -p ACK -e 38 -c 2 -a 0 -i 0 -k MAC 
- -t 0.221738704 -s 1 -d -1 -p ACK -e 38 -c 2 -a 0 -i 0 -k MAC
h -t 0.221738704 -s 1 -d -1 -p ACK -e 38 -c 2 -a 0 -i 0 -k MAC
r -t 0.221753704 -s 1 -d 1 -p ack -e 40 -c 2 -a 0 -i 16 -k AGT
+ -t 0.221753704 -s 1 -d -1 -p tcp -e 1040 -c 2 -a 0 -i 17 -k AGT 
- -t 0.221753704 -s 1 -d -1 -p tcp -e 1040 -c 2 -a 0 -i 17 -k AGT
h -t 0.221753704 -s 1 -d -1 -p tcp -e 1040 -c 2 -a 0 -i 17 -k AGT
+ -t 0.221753704 -s 1 -d -1 -p tcp -e 1040 -c 2 -a 0 -i 18 -k AGT 
- -t 0.221753704 -s 1 -d -1 -p tcp -e 1040 -c 2 -a 0 -i 18 -k AGT
h -t 0.221753704 -s 1 -d -1 -p tcp -e 1040 -c 2 -a 0 -i 18 -k AGT
+ -t 0.221753704 -s 1 -d 0 -p tcp -e 1040 -c 2 -a 0 -i 17 -k RTR 
- -t 0.221753704 -s 1 -d 0 -p tcp -e 1040 -c 2 -a 0 -i 17 -k RTR
h -t 0.221753704 -s 1 -d 0 -p tcp -e 1040 -c 2 -a 0 -i 17 -k RTR
+ -t 0.221753704 -s 1 -d 0 -p tcp -e 1040 -c 2 -a 0 -i 18 -k RTR 
- -t 0.221753704 -s 1 -d 0 -p tcp -e 1040 -c 2 -a 0 -i 18 -k RTR
h -t 0.221753704 -s 1 -d 0 -p tcp -e 1040 -c 2 -a 0 -i 18 -k RTR
r -t 0.222043370 -s 0 -d -1 -p ACK -e 38 -c 2 -a 0 -i 0 -k MAC
+ -t 0.222532704 -s 1 -d -1 -p RTS -e 44 -c 2 -a 0 -i 0 -k MAC 
- -t 0.222532704 -s 1 -d -1 -p RTS -e 44 -c 2 -a 0 -i 0 -k MAC
h -t 0.222532704 -s 1 -d -1 -p RTS -e 44 -c 2 -a 0 -i 0 -k MAC
r -t 0.222885370 -s 0 -d -1 -p RTS -e 44 -c 2 -a 0 -i 0 -k MAC
+ -t 0.222895370 -s 0 -d -1 -p CTS -e 38 -c 2 -a 0 -i 0 -k MAC 
- -t 0.222895370 -s 0 -d -1 -p CTS -e 38 -c 2 -a 0 -i 0 -k MAC
h -t 0.222895370 -s 0 -d -1 -p CTS -e 38 -c 2 -a 0 -i 0 -k MAC
r -t 0.223200037 -s 1 -d -1 -p CTS -e 38 -c 2 -a 0 -i 0 -k MAC
+ -t 0.223210037 -s 1 -d 0 -p tcp -e 1098 -c 2 -a 0 -i 10 -k MAC 
- -t 0.223210037 -s 1 -d 0 -p tcp -e 1098 -c 2 -a 0 -i 10 -k MAC
h -t 0.223210037 -s 1 -d 0 -p tcp -e 1098 -c 2 -a 0 -i 10 -k MAC
r -t 0.223561815 -s 0 -d 0 -p tcp -e 1040 -c 2 -a 0 -i 10 -k MAC
+ -t 0.223571815 -s 0 -d -1 -p ACK -e 38 -c 2 -a 0 -i 0 -k MAC 
- -t 0.223571815 -s 0 -d -1 -p ACK -e 38 -c 2 -a 0 -i 0 -k MAC
h -t 0.223571815 -s 0 -d -1 -p ACK -e 38 -c 2 -a 0 -i 0 -k MAC
r -t 0.223586815 -s 0 -d 0 -p tcp -e 1040 -c 2 -a 0 -i 10 -k AGT
+ -t 0.223586815 -s 0 -d -1 -p ack -e 40 -c 2 -a 0 -i 19 -k AGT 
- -t 0.223586815 -s 0 -d -1 -p ack -e 40 -c 2 -a 0 -i 19 -k AGT
h -t 0.223586815 -s 0 -d -1 -p ack -e 40 -c 2 -a 0 -i 19 -k AGT
+ -t 0.223586815 -s 0 -d 1 -p ack -e 40 -c 2 -a 0 -i 19 -k RTR 
- -t 0.223586815 -s 0 -d 1 -p ack -e 40 -c 2 -a 0 -i 19 -k RTR
h -t 0.223586815 -s 0 -d 1 -p ack -e 40 -c 2 -a 0 -i 19 -k RTR
r -t 0.223876481 -s 1 -d -1 -p ACK -e 38 -c 2 -a 0 -i 0 -k MAC
+ -t 0.224126481 -s 1 -d -1 -p RTS -e 44 -c 2 -a 0 -i 0 -k MAC 
- -t 0.224126481 -s 1 -d -1 -p RTS -e 44 -c 2 -a 0 -i 0 -k MAC
h -t 0.224126481 -s 1 -d -1 -p RTS -e 44 -c 2 -a 0 -i 0 -k MAC
r -t 0.224479148 -s 0 -d -1 -p RTS -e 44 -c 2 -a 0 -i 0 -k MAC
+ -t 0.224489148 -s 0 -d -1 -p CTS -e 38 -c 2 -a 0 -i 0 -k MAC 
- -t 0.224489148 -s 0 -d -1 -p CTS -e 38 -c 2 -a 0 -i 0 -k MAC
h -t 0.224489148 -s 0 -d -1 -p CTS -e 38 -c 2 -a 0 -i 0 -k MAC
r -t 0.224793815 -s 1 -d -1 -p CTS -e 38 -c 2 -a 0 -i 0 -k MAC
+ -t 0.224803815 -s 1 -d 0 -p tcp -e 1098 -c 2 -a 0 -i 11 -k MAC 
- -t 0.224803815 -s 1 -d 0 -p tcp -e 1098 -c 2 -a 0 -i 11 -k MAC
h -t 0.224803815 -s 1 -d 0 -p tcp -e 1098 -c 2 -a 0 -i 11 -k MAC
r -t 0.225155593 -s 0 -d 0 -p tcp -e 1040 -c 2 -a 0 -i 11 -k MAC
+ -t 0.225165593 -s 0 -d -1 -p ACK -e 38 -c 2 -a 0 -i 0 -k MAC 
- -t 0.225165593 -s 0 -d -1 -p ACK -e 38 -c 2 -a 0 -i 0 -k MAC
h -t 0.225165593 -s 0 -d -1 -p ACK -e 38 -c 2 -a 0 -i 0 -k MAC
r -t 0.225180593 -s 0 -d 0 -p tcp -e 1040 -c 2 -a 0 -i 11 -k AGT
+ -t 0.225180593 -s 0 -d -1 -p ack -e 40 -c 2 -a 0 -i 20 -k AGT 
- -t 0.225180593 -s 0 -d -1 -p ack -e 40 -c 2 -a 0 -i 20 -k AGT
h -t 0.225180593 -s 0 -d -1 -p ack -e 40 -c 2 -a 0 -i 20 -k AGT
+ -t 0.225180593 -s 0 -d 1 -p ack -e 40 -c 2 -a 0 -i 20 -k RTR 
- -t 0.225180593 -s 0 -d 1 -p ack -e 40 -c 2 -a 0 -i 20 -k RTR
h -t 0.225180593 -s 0 -d 1 -p ack -e 40 -c 2 -a 0 -i 20 -k RTR
r -t 0.225470259 -s 1 -d -1 -p ACK -e 38 -c 2 -a 0 -i 0 -k MAC
+ -t 0.225639593 -s 0 -d -1 -p RTS -e 44 -c 2 -a 0 -i 0 -k MAC 
- -t 0.225639593 -s 0 -d -1 -p RTS -e 44 -c 2 -a 0 -i 0 -k MAC
h -t 0.225639593 -s 0 -d -1 -p RTS -e 44 -c 2 -a 0 -i 0 -k MAC
r -t 0.225992259 -s 1 -d -1 -p RTS -e 44 -c 2 -a 0 -i 0 -k MAC
+ -t 0.226002259 -s 1 -d -1 -p CTS -e 38 -c 2 -a 0 -i 0 -k MAC 
- -t 0.226002259 -s 1 -d -1 -p CTS -e 38 -c 2 -a 0 -i 0 -k MAC
h -t 0.226002259 -s 1 -d -1 -p CTS -e 38 -c 2 -a 0 -i 0 -k MAC
r -t 0.226306926 -s 0 -d -1 -p CTS -e 38 -c 2 -a 0 -i 0 -k MAC
+ -t 0.226316926 -s 0 -d 1 -p ack -e 98 -c 2 -a 0 -i 19 -k MAC 
- -t 0.226316926 -s 0 -d 1 -p ack -e 98 -c 2 -a 0 -i 19 -k MAC
h -t 0.226316926 -s 0 -d 1 -p ack -e 98 -c 2 -a 0 -i 19 -k MAC
r -t 0.226520556 -s 1 -d 1 -p ack -e 40 -c 2 -a 0 -i 19 -k MAC
+ -t 0.226530556 -s 1 -d -1 -p ACK -e 38 -c 2 -a 0 -i 0 -k MAC 
- -t 0.226530556 -s 1 -d -1 -p ACK -e 38 -c 2 -a 0 -i 0 -k MAC
h -t 0.226530556 -s 1 -d -1 -p ACK -e 38 -c 2 -a 0 -i 0 -k MAC
r -t 0.226545556 -s 1 -d 1 -p ack -e 40 -c 2 -a 0 -i 19 -k AGT
+ -t 0.226545556 -s 1 -d -1 -p tcp -e 1040 -c 2 -a 0 -i 21 -k AGT 
- -t 0.226545556 -s 1 -d -1 -p tcp -e 1040 -c 2 -a 0 -i 21 -k AGT
h -t 0.226545556 -s 1 -d -1 -p tcp -e 1040 -c 2 -a 0 -i 21 -k AGT
+ -t 0.226545556 -s 1 -d -1 -p tcp -e 1040 -c 2 -a 0 -i 22 -k AGT 
- -t 0.226545556 -s 1 -d -1 -p tcp -e 1040 -c 2 -a 0 -i 22 -k AGT
h -t 0.226545556 -s 1 -d -1 -p tcp -e 1040 -c 2 -a 0 -i 22 -k AGT
+ -t 0.226545556 -s 1 -d 0 -p tcp -e 1040 -c 2 -a 0 -i 21 -k RTR 
- -t 0.226545556 -s 1 -d 0 -p tcp -e 1040 -c 2 -a 0 -i 21 -k RTR
h -t 0.226545556 -s 1 -d 0 -p tcp -e 1040 -c 2 -a 0 -i 21 -k RTR
+ -t 0.226545556 -s 1 -d 0 -p tcp -e 1040 -c 2 -a 0 -i 22 -k RTR 
- -t 0.226545556 -s 1 -d 0 -p tcp -e 1040 -c 2 -a 0 -i 22 -k RTR
h -t 0.226545556 -s 1 -d 0 -p tcp -e 1040 -c 2 -a 0 -i 22 -k RTR
r -t 0.226835222 -s 0 -d -1 -p ACK -e 38 -c 2 -a 0 -i 0 -k MAC
+ -t 0.226905222 -s 0 -d -1 -p RTS -e 44 -c 2 -a 0 -i 0 -k MAC 
- -t 0.226905222 -s 0 -d -1 -p RTS -e 44 -c 2 -a 0 -i 0 -k MAC
h -t 0.226905222 -s 0 -d -1 -p RTS -e 44 -c 2 -a 0 -i 0 -k MAC
r -t 0.227257889 -s 1 -d -1 -p RTS -e 44 -c 2 -a 0 -i 0 -k MAC
+ -t 0.227267889 -s 1 -d -1 -p CTS -e 38 -c 2 -a 0 -i 0 -k MAC 
- -t 0.227267889 -s 1 -d -1 -p CTS -e 38 -c 2 -a 0 -i 0 -k MAC
h -t 0.227267889 -s 1 -d -1 -p CTS -e 38 -c 2 -a 0 -i 0 -k MAC
r -t 0.227572556 -s 0 -d -1 -p CTS -e 38 -c 2 -a 0 -i 0 -k MAC
+ -t 0.227582556 -s 0 -d 1 -p ack -e 98 -c 2 -a 0 -i 20 -k MAC 
- -t 0.227582556 -s 0 -d 1 -p ack -e 98 -c 2 -a 0 -i 20 -k MAC
h -t 0.227582556 -s 0 -d 1 -p ack -e 98 -c 2 -a 0 -i 20 -k MAC
r -t 0.227786185 -s 1 -d 1 -p ack -e 40 -c 2 -a 0 -i 20 -k MAC
+ -t 0.227796185 -s 1 -d -1 -p ACK -e 38 -c 2 -a 0 -i 0 -k MAC 
- -t 0.227796185 -s 1 -d -1 -p ACK -e 38 -c 2 -a 0 -i 0 -k MAC
h -t 0.227796185 -s 1 -d -1 -p ACK -e 38 -c 2 -a 0 -i 0 -k MAC
r -t 0.227811185 -s 1 -d 1 -p ack -e 40 -c 2 -a 0 -i 20 -k AGT
+ -t 0.227811185 -s 1 -d -1 -p tcp -e 1040 -c 2 -a 0 -i 23 -k AGT 
- -t 0.227811185 -s 1 -d -1 -p tcp -e 1040 -c 2 -a 0 -i 23 -k AGT
h -t 0.227811185 -s 1 -d -1 -p tcp -e 1040 -c 2 -a 0 -i 23 -k AGT
+ -t 0.227811185 -s 1 -d -1 -p tcp -e 1040 -c 2 -a 0 -i 24 -k AGT 
- -t 0.227811185 -s 1 -d -1 -p tcp -e 1040 -c 2 -a 0 -i 24 -k AGT
h -t 0.227811185 -s 1 -d -1 -p tcp -e 1040 -c 2 -a 0 -i 24 -k AGT
+ -t 0.227811185 -s 1 -d 0 -p tcp -e 1040 -c 2 -a 0 -i 23 -k RTR 
- -t 0.227811185 -s 1 -d 0 -p tcp -e 1040 -c 2 -a 0 -i 23 -k RTR