n -t * -s 0  -x 0 -y 0 -Z 0 -z 40  -v circle -c black
n -t * -s 1  -x 0 -y 0 -Z 0 -z 40  -v circle -c black
V -t * -v 1.0a5 -a 0
W -t * -x 1000 -y 1000
A -t * -n 1 -p 0 -o 0x7fffffff -c 30 -a 1
A -t * -h 1 -m 1073741823 -s 0
n -t 0.100000 -s 0 -x 258.000000 -y 500.000000 -U -1000.000000 -V 0.000000 -T 0.008000
n -t 0.100000 -s 1 -x 400.000000 -y 500.000000 -U 1000.000000 -V 0.000000 -T 0.050000
+ -t 0.200000000 -s 1 -d -1 -p tcp -e 40 -c 2 -a 0 -i 0 -k AGT 
- -t 0.200000000 -s 1 -d -1 -p tcp -e 40 -c 2 -a 0 -i 0 -k AGT
h -t 0.200000000 -s 1 -d -1 -p tcp -e 40 -c 2 -a 0 -i 0 -k AGT
+ -t 0.200000000 -s 1 -d -1 -p AODV -e 48 -c 2 -a 0 -i 0 -k RTR 
- -t 0.200000000 -s 1 -d -1 -p AODV -e 48 -c 2 -a 0 -i 0 -k RTR
h -t 0.200000000 -s 1 -d -1 -p AODV -e 48 -c 2 -a 0 -i 0 -k RTR
+ -t 0.200115000 -s 1 -d -1 -p AODV -e 106 -c 2 -a 0 -i 0 -k MAC 
- -t 0.200115000 -s 1 -d -1 -p AODV -e 106 -c 2 -a 0 -i 0 -k MAC
h -t 0.200115000 -s 1 -d -1 -p AODV -e 106 -c 2 -a 0 -i 0 -k MAC
r -t 0.200963667 -s 0 -d -1 -p AODV -e 48 -c 2 -a 0 -i 0 -k MAC
r -t 0.200988667 -s 0 -d -1 -p AODV -e 48 -c 2 -a 0 -i 0 -k RTR
+ -t 0.200988667 -s 0 -d 1 -p AODV -e 44 -c 2 -a 0 -i 0 -k RTR 
- -t 0.200988667 -s 0 -d 1 -p AODV -e 44 -c 2 -a 0 -i 0 -k RTR
h -t 0.200988667 -s 0 -d 1 -p AODV -e 44 -c 2 -a 0 -i 0 -k RTR
+ -t 0.201343667 -s 0 -d -1 -p ARP -e 86 -c 2 -a 0 -i 0 -k MAC 
- -t 0.201343667 -s 0 -d -1 -p ARP -e 86 -c 2 -a 0 -i 0 -k MAC
h -t 0.201343667 -s 0 -d -1 -p ARP -e 86 -c 2 -a 0 -i 0 -k MAC
r -t 0.202032333 -s 1 -d -1 -p ARP -e 28 -c 2 -a 0 -i 0 -k MAC
+ -t 0.202322333 -s 1 -d -1 -p RTS -e 44 -c 2 -a 0 -i 0 -k MAC 
- -t 0.202322333 -s 1 -d -1 -p RTS -e 44 -c 2 -a 0 -i 0 -k MAC
h -t 0.202322333 -s 1 -d -1 -p RTS -e 44 -c 2 -a 0 -i 0 -k MAC
+ -t 0.203702333 -s 1 -d -1 -p RTS -e 44 -c 2 -a 0 -i 0 -k MAC 
- -t 0.203702333 -s 1 -d -1 -p RTS -e 44 -c 2 -a 0 -i 0 -k MAC
h -t 0.203702333 -s 1 -d -1 -p RTS -e 44 -c 2 -a 0 -i 0 -k MAC
r -t 0.204055000 -s 0 -d -1 -p RTS -e 44 -c 2 -a 0 -i 0 -k MAC
+ -t 0.204065000 -s 0 -d -1 -p CTS -e 38 -c 2 -a 0 -i 0 -k MAC 
- -t 0.204065000 -s 0 -d -1 -p CTS -e 38 -c 2 -a 0 -i 0 -k MAC
h -t 0.204065000 -s 0 -d -1 -p CTS -e 38 -c 2 -a 0 -i 0 -k MAC
r -t 0.204369667 -s 1 -d -1 -p CTS -e 38 -c 2 -a 0 -i 0 -k MAC
+ -t 0.204379667 -s 1 -d -1 -p ARP -e 86 -c 2 -a 0 -i 0 -k MAC 
- -t 0.204379667 -s 1 -d -1 -p ARP -e 86 -c 2 -a 0 -i 0 -k MAC
h -t 0.204379667 -s 1 -d -1 -p ARP -e 86 -c 2 -a 0 -i 0 -k MAC
r -t 0.204581519 -s 0 -d -1 -p ARP -e 28 -c 2 -a 0 -i 0 -k MAC
+ -t 0.204591519 -s 0 -d -1 -p ACK -e 38 -c 2 -a 0 -i 0 -k MAC 
- -t 0.204591519 -s 0 -d -1 -p ACK -e 38 -c 2 -a 0 -i 0 -k MAC
h -t 0.204591519 -s 0 -d -1 -p ACK -e 38 -c 2 -a 0 -i 0 -k MAC
r -t 0.204896185 -s 1 -d -1 -p ACK -e 38 -c 2 -a 0 -i 0 -k MAC
+ -t 0.205105519 -s 0 -d -1 -p RTS -e 44 -c 2 -a 0 -i 0 -k MAC 
- -t 0.205105519 -s 0 -d -1 -p RTS -e 44 -c 2 -a 0 -i 0 -k MAC
h -t 0.205105519 -s 0 -d -1 -p RTS -e 44 -c 2 -a 0 -i 0 -k MAC
r -t 0.205458185 -s 1 -d -1 -p RTS -e 44 -c 2 -a 0 -i 0 -k MAC
+ -t 0.205468185 -s 1 -d -1 -p CTS -e 38 -c 2 -a 0 -i 0 -k MAC 
- -t 0.205468185 -s 1 -d -1 -p CTS -e 38 -c 2 -a 0 -i 0 -k MAC
h -t 0.205468185 -s 1 -d -1 -p CTS -e 38 -c 2 -a 0 -i 0 -k MAC
r -t 0.205772852 -s 0 -d -1 -p CTS -e 38 -c 2 -a 0 -i 0 -k MAC
+ -t 0.205782852 -s 0 -d 1 -p AODV -e 102 -c 2 -a 0 -i 0 -k MAC 
- -t 0.205782852 -s 0 -d 1 -p AODV -e 102 -c 2 -a 0 -i 0 -k MAC
h -t 0.205782852 -s 0 -d 1 -p AODV -e 102 -c 2 -a 0 -i 0 -k MAC
r -t 0.205987074 -s 1 -d 1 -p AODV -e 44 -c 2 -a 0 -i 0 -k MAC
+ -t 0.205997074 -s 1 -d -1 -p ACK -e 38 -c 2 -a 0 -i 0 -k MAC 
- -t 0.205997074 -s 1 -d -1 -p ACK -e 38 -c 2 -a 0 -i 0 -k MAC
h -t 0.205997074 -s 1 -d -1 -p ACK -e 38 -c 2 -a 0 -i 0 -k MAC
+ -t 0.206012074 -s 1 -d 0 -p tcp -e 40 -c 2 -a 0 -i 0 -k RTR 
- -t 0.206012074 -s 1 -d 0 -p tcp -e 40 -c 2 -a 0 -i 0 -k RTR
h -t 0.206012074 -s 1 -d 0 -p tcp -e 40 -c 2 -a 0 -i 0 -k RTR
r -t 0.206301741 -s 0 -d -1 -p ACK -e 38 -c 2 -a 0 -i 0 -k MAC
+ -t 0.206411074 -s 1 -d -1 -p RTS -e 44 -c 2 -a 0 -i 0 -k MAC 
- -t 0.206411074 -s 1 -d -1 -p RTS -e 44 -c 2 -a 0 -i 0 -k MAC
h -t 0.206411074 -s 1 -d -1 -p RTS -e 44 -c 2 -a 0 -i 0 -k MAC
r -t 0.206763741 -s 0 -d -1 -p RTS -e 44 -c 2 -a 0 -i 0 -k MAC
+ -t 0.206773741 -s 0 -d -1 -p CTS -e 38 -c 2 -a 0 -i 0 -k MAC 
- -t 0.206773741 -s 0 -d -1 -p CTS -e 38 -c 2 -a 0 -i 0 -k MAC
h -t 0.206773741 -s 0 -d -1 -p CTS -e 38 -c 2 -a 0 -i 0 -k MAC
r -t 0.207078407 -s 1 -d -1 -p CTS -e 38 -c 2 -a 0 -i 0 -k MAC
+ -t 0.207088407 -s 1 -d 0 -p tcp -e 98 -c 2 -a 0 -i 0 -k MAC 
- -t 0.207088407 -s 1 -d 0 -p tcp -e 98 -c 2 -a 0 -i 0 -k MAC
h -t 0.207088407 -s 1 -d 0 -p tcp -e 98 -c 2 -a 0 -i 0 -k MAC
r -t 0.207292037 -s 0 -d 0 -p tcp -e 40 -c 2 -a 0 -i 0 -k MAC
+ -t 0.207302037 -s 0 -d -1 -p ACK -e 38 -c 2 -a 0 -i 0 -k MAC 
- -t 0.207302037 -s 0 -d -1 -p ACK -e 38 -c 2 -a 0 -i 0 -k MAC
h -t 0.207302037 -s 0 -d -1 -p ACK -e 38 -c 2 -a 0 -i 0 -k MAC
r -t 0.207317037 -s 0 -d 0 -p tcp -e 40 -c 2 -a 0 -i 0 -k AGT
+ -t 0.207317037 -s 0 -d -1 -p ack -e 40 -c 2 -a 0 -i 1 -k AGT 
- -t 0.207317037 -s 0 -d -1 -p ack -e 40 -c 2 -a 0 -i 1 -k AGT
h -t 0.207317037 -s 0 -d -1 -p ack -e 40 -c 2 -a 0 -i 1 -k AGT
+ -t 0.207317037 -s 0 -d 1 -p ack -e 40 -c 2 -a 0 -i 1 -k RTR 
- -t 0.207317037 -s 0 -d 1 -p ack -e 40 -c 2 -a 0 -i 1 -k RTR
h -t 0.207317037 -s 0 -d 1 -p ack -e 40 -c 2 -a 0 -i 1 -k RTR
+ -t 0.207836037 -s 0 -d -1 -p RTS -e 44 -c 2 -a 0 -i 0 -k MAC 
- -t 0.207836037 -s 0 -d -1 -p RTS -e 44 -c 2 -a 0 -i 0 -k MAC
h -t 0.207836037 -s 0 -d -1 -p RTS -e 44 -c 2 -a 0 -i 0 -k MAC
r -t 0.208188704 -s 1 -d -1 -p RTS -e 44 -c 2 -a 0 -i 0 -k MAC
+ -t 0.208198704 -s 1 -d -1 -p CTS -e 38 -c 2 -a 0 -i 0 -k MAC 
- -t 0.208198704 -s 1 -d -1 -p CTS -e 38 -c 2 -a 0 -i 0 -k MAC
h -t 0.208198704 -s 1 -d -1 -p CTS -e 38 -c 2 -a 0 -i 0 -k MAC
r -t 0.208503370 -s 0 -d -1 -p CTS -e 38 -c 2 -a 0 -i 0 -k MAC
+ -t 0.208513370 -s 0 -d 1 -p ack -e 98 -c 2 -a 0 -i 1 -k MAC 
- -t 0.208513370 -s 0 -d 1 -p ack -e 98 -c 2 -a 0 -i 1 -k MAC
h -t 0.208513370 -s 0 -d 1 -p ack -e 98 -c 2 -a 0 -i 1 -k MAC
+ -t 0.210124333 -s 0 -d -1 -p RTS -e 44 -c 2 -a 0 -i 0 -k MAC 
- -t 0.210124333 -s 0 -d -1 -p RTS -e 44 -c 2 -a 0 -i 0 -k MAC
h -t 0.210124333 -s 0 -d -1 -p RTS -e 44 -c 2 -a 0 -i 0 -k MAC
r -t 0.210477000 -s 1 -d -1 -p RTS -e 44 -c 2 -a 0 -i 0 -k MAC
+ -t 0.210487000 -s 1 -d -1 -p CTS -e 38 -c 2 -a 0 -i 0 -k MAC 
- -t 0.210487000 -s 1 -d -1 -p CTS -e 38 -c 2 -a 0 -i 0 -k MAC
h -t 0.210487000 -s 1 -d -1 -p CTS -e 38 -c 2 -a 0 -i 0 -k MAC
r -t 0.210791667 -s 0 -d -1 -p CTS -e 38 -c 2 -a 0 -i 0 -k MAC
+ -t 0.210801667 -s 0 -d 1 -p ack -e 98 -c 2 -a 0 -i 1 -k MAC 
- -t 0.210801667 -s 0 -d 1 -p ack -e 98 -c 2 -a 0 -i 1 -k MAC
h -t 0.210801667 -s 0 -d 1 -p ack -e 98 -c 2 -a 0 -i 1 -k MAC
+ -t 0.211679296 -s 1 -d -1 -p RTS -e 44 -c 2 -a 0 -i 0 -k MAC 
- -t 0.211679296 -s 1 -d -1 -p RTS -e 44 -c 2 -a 0 -i 0 -k MAC
h -t 0.211679296 -s 1 -d -1 -p RTS -e 44 -c 2 -a 0 -i 0 -k MAC
+ -t 0.212939296 -s 1 -d -1 -p RTS -e 44 -c 2 -a 0 -i 0 -k MAC 
- -t 0.212939296 -s 1 -d -1 -p RTS -e 44 -c 2 -a 0 -i 0 -k MAC
h -t 0.212939296 -s 1 -d -1 -p RTS -e 44 -c 2 -a 0 -i 0 -k MAC
r -t 0.213291963 -s 0 -d -1 -p RTS -e 44 -c 2 -a 0 -i 0 -k MAC
+ -t 0.213301963 -s 0 -d -1 -p CTS -e 38 -c 2 -a 0 -i 0 -k MAC 
- -t 0.213301963 -s 0 -d -1 -p CTS -e 38 -c 2 -a 0 -i 0 -k MAC
h -t 0.213301963 -s 0 -d -1 -p CTS -e 38 -c 2 -a 0 -i 0 -k MAC
r -t 0.213606630 -s 1 -d -1 -p CTS -e 38 -c 2 -a 0 -i 0 -k MAC
+ -t 0.213616630 -s 1 -d 0 -p tcp -e 98 -c 2 -a 0 -i 0 -k MAC 
- -t 0.213616630 -s 1 -d 0 -p tcp -e 98 -c 2 -a 0 -i 0 -k MAC
h -t 0.213616630 -s 1 -d 0 -p tcp -e 98 -c 2 -a 0 -i 0 -k MAC
d -t 0.213820259 -s 0 -d 0 -p tcp -e 40 -c 2 -a 0 -i 0 -k MAC
+ -t 0.213830259 -s 0 -d -1 -p ACK -e 38 -c 2 -a 0 -i 0 -k MAC 
- -t 0.213830259 -s 0 -d -1 -p ACK -e 38 -c 2 -a 0 -i 0 -k MAC
h -t 0.213830259 -s 0 -d -1 -p ACK -e 38 -c 2 -a 0 -i 0 -k MAC
r -t 0.214134926 -s 1 -d -1 -p ACK -e 38 -c 2 -a 0 -i 0 -k MAC
+ -t 0.214304259 -s 0 -d -1 -p RTS -e 44 -c 2 -a 0 -i 0 -k MAC 
- -t 0.214304259 -s 0 -d -1 -p RTS -e 44 -c 2 -a 0 -i 0 -k MAC
h -t 0.214304259 -s 0 -d -1 -p RTS -e 44 -c 2 -a 0 -i 0 -k MAC
r -t 0.214656926 -s 1 -d -1 -p RTS -e 44 -c 2 -a 0 -i 0 -k MAC
+ -t 0.214666926 -s 1 -d -1 -p CTS -e 38 -c 2 -a 0 -i 0 -k MAC 
- -t 0.214666926 -s 1 -d -1 -p CTS -e 38 -c 2 -a 0 -i 0 -k MAC
h -t 0.214666926 -s 1 -d -1 -p CTS -e 38 -c 2 -a 0 -i 0 -k MAC
r -t 0.214971593 -s 0 -d -1 -p CTS -e 38 -c 2 -a 0 -i 0 -k MAC
+ -t 0.214981593 -s 0 -d 1 -p ack -e 98 -c 2 -a 0 -i 1 -k MAC 
- -t 0.214981593 -s 0 -d 1 -p ack -e 98 -c 2 -a 0 -i 1 -k MAC
h -t 0.214981593 -s 0 -d 1 -p ack -e 98 -c 2 -a 0 -i 1 -k MAC
+ -t 0.218972556 -s 0 -d -1 -p RTS -e 44 -c 2 -a 0 -i 0 -k MAC 
- -t 0.218972556 -s 0 -d -1 -p RTS -e 44 -c 2 -a 0 -i 0 -k MAC
h -t 0.218972556 -s 0 -d -1 -p RTS -e 44 -c 2 -a 0 -i 0 -k MAC
r -t 0.219325222 -s 1 -d -1 -p RTS -e 44 -c 2 -a 0 -i 0 -k MAC
+ -t 0.219335222 -s 1 -d -1 -p CTS -e 38 -c 2 -a 0 -i 0 -k MAC 
- -t 0.219335222 -s 1 -d -1 -p CTS -e 38 -c 2 -a 0 -i 0 -k MAC
h -t 0.219335222 -s 1 -d -1 -p CTS -e 38 -c 2 -a 0 -i 0 -k MAC
+ -t 0.225493889 -s 0 -d -1 -p RTS -e 44 -c 2 -a 0 -i 0 -k MAC 
- -t 0.225493889 -s 0 -d -1 -p RTS -e 44 -c 2 -a 0 -i 0 -k MAC
h -t 0.225493889 -s 0 -d -1 -p RTS -e 44 -c 2 -a 0 -i 0 -k MAC
r -t 0.225846556 -s 1 -d -1 -p RTS -e 44 -c 2 -a 0 -i 0 -k MAC
+ -t 0.225856556 -s 1 -d -1 -p CTS -e 38 -c 2 -a 0 -i 0 -k MAC 
- -t 0.225856556 -s 1 -d -1 -p CTS -e 38 -c 2 -a 0 -i 0 -k MAC
h -t 0.225856556 -s 1 -d -1 -p CTS -e 38 -c 2 -a 0 -i 0 -k MAC
r -t 0.226161222 -s 0 -d -1 -p CTS -e 38 -c 2 -a 0 -i 0 -k MAC
+ -t 0.226171222 -s 0 -d 1 -p ack -e 98 -c 2 -a 0 -i 1 -k MAC 
- -t 0.226171222 -s 0 -d 1 -p ack -e 98 -c 2 -a 0 -i 1 -k MAC
h -t 0.226171222 -s 0 -d 1 -p ack -e 98 -c 2 -a 0 -i 1 -k MAC
r -t 0.226374852 -s 1 -d 1 -p ack -e 40 -c 2 -a 0 -i 1 -k MAC
+ -t 0.226384852 -s 1 -d -1 -p ACK -e 38 -c 2 -a 0 -i 0 -k MAC 
- -t 0.226384852 -s 1 -d -1 -p ACK -e 38 -c 2 -a 0 -i 0 -k MAC
h -t 0.226384852 -s 1 -d -1 -p ACK -e 38 -c 2 -a 0 -i 0 -k MAC
r -t 0.226399852 -s 1 -d 1 -p ack -e 40 -c 2 -a 0 -i 1 -k AGT
+ -t 0.226399852 -s 1 -d -1 -p tcp -e 1040 -c 2 -a 0 -i 2 -k AGT 
- -t 0.226399852 -s 1 -d -1 -p tcp -e 1040 -c 2 -a 0 -i 2 -k AGT
h -t 0.226399852 -s 1 -d -1 -p tcp -e 1040 -c 2 -a 0 -i 2 -k AGT
+ -t 0.226399852 -s 1 -d -1 -p tcp -e 1040 -c 2 -a 0 -i 3 -k AGT 
- -t 0.226399852 -s 1 -d -1 -p tcp -e 1040 -c 2 -a 0 -i 3 -k AGT
h -t 0.226399852 -s 1 -d -1 -p tcp -e 1040 -c 2 -a 0 -i 3 -k AGT
+ -t 0.226399852 -s 1 -d 0 -p tcp -e 1040 -c 2 -a 0 -i 2 -k RTR 
- -t 0.226399852 -s 1 -d 0 -p tcp -e 1040 -c 2 -a 0 -i 2 -k RTR
h -t 0.226399852 -s 1 -d 0 -p tcp -e 1040 -c 2 -a 0 -i 2 -k RTR
+ -t 0.226399852 -s 1 -d 0 -p tcp -e 1040 -c 2 -a 0 -i 3 -k RTR 
- -t 0.226399852 -s 1 -d 0 -p tcp -e 1040 -c 2 -a 0 -i 3 -k RTR
h -t 0.226399852 -s 1 -d 0 -p tcp -e 1040 -c 2 -a 0 -i 3 -k RTR
r -t 0.226689519 -s 0 -d -1 -p ACK -e 38 -c 2 -a 0 -i 0 -k MAC
+ -t 0.226978852 -s 1 -d -1 -p RTS -e 44 -c 2 -a 0 -i 0 -k MAC 
- -t 0.226978852 -s 1 -d -1 -p RTS -e 44 -c 2 -a 0 -i 0 -k MAC
h -t 0.226978852 -s 1 -d -1 -p RTS -e 44 -c 2 -a 0 -i 0 -k MAC
r -t 0.227331519 -s 0 -d -1 -p RTS -e 44 -c 2 -a 0 -i 0 -k MAC
+ -t 0.227341519 -s 0 -d -1 -p CTS -e 38 -c 2 -a 0 -i 0 -k MAC 
- -t 0.227341519 -s 0 -d -1 -p CTS -e 38 -c 2 -a 0 -i 0 -k MAC
h -t 0.227341519 -s 0 -d -1 -p CTS -e 38 -c 2 -a 0 -i 0 -k MAC
r -t 0.227646185 -s 1 -d -1 -p CTS -e 38 -c 2 -a 0 -i 0 -k MAC
+ -t 0.227656185 -s 1 -d 0 -p tcp -e 1098 -c 2 -a 0 -i 2 -k MAC 
- -t 0.227656185 -s 1 -d 0 -p tcp -e 1098 -c 2 -a 0 -i 2 -k MAC
h -t 0.227656185 -s 1 -d 0 -p tcp -e 1098 -c 2 -a 0 -i 2 -k MAC
r -t 0.228007963 -s 0 -d 0 -p tcp -e 1040 -c 2 -a 0 -i 2 -k MAC
+ -t 0.228017963 -s 0 -d -1 -p ACK -e 38 -c 2 -a 0 -i 0 -k MAC 
- -t 0.228017963 -s 0 -d -1 -p ACK -e 38 -c 2 -a 0 -i 0 -k MAC
h -t 0.228017963 -s 0 -d -1 -p ACK -e 38 -c 2 -a 0 -i 0 -k MAC
r -t 0.228032963 -s 0 -d 0 -p tcp -e 1040 -c 2 -a 0 -i 2 -k AGT
+ -t 0.228032963 -s 0 -d -1 -p ack -e 40 -c 2 -a 0 -i 4 -k AGT 
- -t 0.228032963 -s 0 -d -1 -p ack -e 40 -c 2 -a 0 -i 4 -k AGT
h -t 0.228032963 -s 0 -d -1 -p ack -e 40 -c 2 -a 0 -i 4 -k AGT
+ -t 0.228032963 -s 0 -d 1 -p ack -e 40 -c 2 -a 0 -i 4 -k RTR 
- -t 0.228032963 -s 0 -d 1 -p ack -e 40 -c 2 -a 0 -i 4 -k RTR
h -t 0.228032963 -s 0 -d 1 -p ack -e 40 -c 2 -a 0 -i 4 -k RTR
+ -t 0.228836630 -s 1 -d -1 -p RTS -e 44 -c 2 -a 0 -i 0 -k MAC 
- -t 0.228836630 -s 1 -d -1 -p RTS -e 44 -c 2 -a 0 -i 0 -k MAC
h -t 0.228836630 -s 1 -d -1 -p RTS -e 44 -c 2 -a 0 -i 0 -k MAC
r -t 0.229189296 -s 0 -d -1 -p RTS -e 44 -c 2 -a 0 -i 0 -k MAC
+ -t 0.229199296 -s 0 -d -1 -p CTS -e 38 -c 2 -a 0 -i 0 -k MAC 
- -t 0.229199296 -s 0 -d -1 -p CTS -e 38 -c 2 -a 0 -i 0 -k MAC
h -t 0.229199296 -s 0 -d -1 -p CTS -e 38 -c 2 -a 0 -i 0 -k MAC
r -t 0.229503963 -s 1 -d -1 -p CTS -e 38 -c 2 -a 0 -i 0 -k MAC
+ -t 0.229513963 -s 1 -d 0 -p tcp -e 1098 -c 2 -a 0 -i 2 -k MAC 
- -t 0.229513963 -s 1 -d 0 -p tcp -e 1098 -c 2 -a 0 -i 2 -k MAC
h -t 0.229513963 -s 1 -d 0 -p tcp -e 1098 -c 2 -a 0 -i 2 -k MAC
d -t 0.229865741 -s 0 -d 0 -p tcp -e 1040 -c 2 -a 0 -i 2 -k MAC
+ -t 0.229875741 -s 0 -d -1 -p ACK -e 38 -c 2 -a 0 -i 0 -k MAC 
- -t 0.229875741 -s 0 -d -1 -p ACK -e 38 -c 2 -a 0 -i 0 -k MAC
h -t 0.229875741 -s 0 -d -1 -p ACK -e 38 -c 2 -a 0 -i 0 -k MAC
r -t 0.230180407 -s 1 -d -1 -p ACK -e 38 -c 2 -a 0 -i 0 -k MAC
+ -t 0.230249741 -s 0 -d -1 -p RTS -e 44 -c 2 -a 0 -i 0 -k MAC 
- -t 0.230249741 -s 0 -d -1 -p RTS -e 44 -c 2 -a 0 -i 0 -k MAC
h -t 0.230249741 -s 0 -d -1 -p RTS -e 44 -c 2 -a 0 -i 0 -k MAC
r -t 0.230602407 -s 1 -d -1 -p RTS -e 44 -c 2 -a 0 -i 0 -k MAC
+ -t 0.230612407 -s 1 -d -1 -p CTS -e 38 -c 2 -a 0 -i 0 -k MAC 
- -t 0.230612407 -s 1 -d -1 -p CTS -e 38 -c 2 -a 0 -i 0 -k MAC
h -t 0.230612407 -s 1 -d -1 -p CTS -e 38 -c 2 -a 0 -i 0 -k MAC
r -t 0.230917074 -s 0 -d -1 -p CTS -e 38 -c 2 -a 0 -i 0 -k MAC
+ -t 0.230927074 -s 0 -d 1 -p ack -e 98 -c 2 -a 0 -i 4 -k MAC 
- -t 0.230927074 -s 0 -d 1 -p ack -e 98 -c 2 -a 0 -i 4 -k MAC
h -t 0.230927074 -s 0 -d 1 -p ack -e 98 -c 2 -a 0 -i 4 -k MAC
r -t 0.231130704 -s 1 -d 1 -p ack -e 40 -c 2 -a 0 -i 4 -k MAC
+ -t 0.231140704 -s 1 -d -1 -p ACK -e 38 -c 2 -a 0 -i 0 -k MAC 
- -t 0.231140704 -s 1 -d -1 -p ACK -e 38 -c 2 -a 0 -i 0 -k MAC
h -t 0.231140704 -s 1 -d -1 -p ACK -e 38 -c 2 -a 0 -i 0 -k MAC
r -t 0.231155704 -s 1 -d 1 -p ack -e 40 -c 2 -a 0 -i 4 -k AGT
+ -t 0.231155704 -s 1 -d -1 -p tcp -e 1040 -c 2 -a 0 -i 5 -k AGT 
- -t 0.231155704 -s 1 -d -1 -p tcp -e 1040 -c 2 -a 0 -i 5 -k AGT
h -t 0.231155704 -s 1 -d -1 -p tcp -e 1040 -c 2 -a 0 -i 5 -k AGT
+ -t 0.231155704 -s 1 -d -1 -p tcp -e 1040 -c 2 -a 0 -i 6 -k AGT 
- -t 0.231155704 -s 1 -d -1 -p tcp -e 1040 -c 2 -a 0 -i 6 -k AGT
h -t 0.231155704 -s 1 -d -1 -p tcp -e 1040 -c 2 -a 0 -i 6 -k AGT
+ -t 0.231155704 -s 1 -d 0 -p tcp -e 1040 -c 2 -a 0 -i 5 -k RTR 
- -t 0.231155704 -s 1 -d 0 -p tcp -e 1040 -c 2 -a 0 -i 5 -k RTR
h -t 0.231155704 -s 1 -d 0 -p tcp -e 1040 -c 2 -a 0 -i 5 -k RTR
+ -t 0.231155704 -s 1 -d 0 -p tcp -e 1040 -c 2 -a 0 -i 6 -k RTR 
- -t 0.231155704 -s 1 -d 0 -p tcp -e 1040 -c 2 -a 0 -i 6 -k RTR
h -t 0.231155704 -s 1 -d 0 -p tcp -e 1040 -c 2 -a 0 -i 6 -k RTR
+ -t 0.231814704 -s 1 -d -1 -p RTS -e 44 -c 2 -a 0 -i 0 -k MAC 
- -t 0.231814704 -s 1 -d -1 -p RTS -e 44 -c 2 -a 0 -i 0 -k MAC
h -t 0.231814704 -s 1 -d -1 -p RTS -e 44 -c 2 -a 0 -i 0 -k MAC
r -t 0.232167370 -s 0 -d -1 -p RTS -e 44 -c 2 -a 0 -i 0 -k MAC
+ -t 0.232177370 -s 0 -d -1 -p CTS -e 38 -c 2 -a 0 -i 0 -k MAC 
- -t 0.232177370 -s 0 -d -1 -p CTS -e 38 -c 2 -a 0 -i 0 -k MAC
h -t 0.232177370 -s 0 -d -1 -p CTS -e 38 -c 2 -a 0 -i 0 -k MAC
r -t 0.232482037 -s 1 -d -1 -p CTS -e 38 -c 2 -a 0 -i 0 -k MAC
+ -t 0.232492037 -s 1 -d 0 -p tcp -e 1098 -c 2 -a 0 -i 3 -k MAC 
- -t 0.232492037 -s 1 -d 0 -p tcp -e 1098 -c 2 -a 0 -i 3 -k MAC
h -t 0.232492037 -s 1 -d 0 -p tcp -e 1098 -c 2 -a 0 -i 3 -k MAC
+ -t 0.234151148 -s 1 -d -1 -p RTS -e 44 -c 2 -a 0 -i 0 -k MAC 
- -t 0.234151148 -s 1 -d -1 -p RTS -e 44 -c 2 -a 0 -i 0 -k MAC
h -t 0.234151148 -s 1 -d -1 -p RTS -e 44 -c 2 -a 0 -i 0 -k MAC
+ -t 0.235277815 -s 0 -d -1 -p RTS -e 44 -c 2 -a 0 -i 0 -k MAC 
- -t 0.235277815 -s 0 -d -1 -p RTS -e 44 -c 2 -a 0 -i 0 -k MAC
h -t 0.235277815 -s 0 -d -1 -p RTS -e 44 -c 2 -a 0 -i 0 -k MAC
+ -t 0.237177815 -s 0 -d -1 -p RTS -e 44 -c 2 -a 0 -i 0 -k MAC 
- -t 0.237177815 -s 0 -d -1 -p RTS -e 44 -c 2 -a 0 -i 0 -k MAC
h -t 0.237177815 -s 0 -d -1 -p RTS -e 44 -c 2 -a 0 -i 0 -k MAC
r -t 0.237530481 -s 1 -d -1 -p RTS -e 44 -c 2 -a 0 -i 0 -k MAC
+ -t 0.237540481 -s 1 -d -1 -p CTS -e 38 -c 2 -a 0 -i 0 -k MAC 
- -t 0.237540481 -s 1 -d -1 -p CTS -e 38 -c 2 -a 0 -i 0 -k MAC
h -t 0.237540481 -s 1 -d -1 -p CTS -e 38 -c 2 -a 0 -i 0 -k MAC
r -t 0.237845148 -s 0 -d -1 -p CTS -e 38 -c 2 -a 0 -i 0 -k MAC
+ -t 0.237855148 -s 0 -d 1 -p ack -e 98 -c 2 -a 0 -i 4 -k MAC 
- -t 0.237855148 -s 0 -d 1 -p ack -e 98 -c 2 -a 0 -i 4 -k MAC
h -t 0.237855148 -s 0 -d 1 -p ack -e 98 -c 2 -a 0 -i 4 -k MAC
+ -t 0.239232778 -s 1 -d -1 -p RTS -e 44 -c 2 -a 0 -i 0 -k MAC 
- -t 0.239232778 -s 1 -d -1 -p RTS -e 44 -c 2 -a 0 -i 0 -k MAC
h -t 0.239232778 -s 1 -d -1 -p RTS -e 44 -c 2 -a 0 -i 0 -k MAC
+ -t 0.240472778 -s 1 -d -1 -p RTS -e 44 -c 2 -a 0 -i 0 -k MAC 
- -t 0.240472778 -s 1 -d -1 -p RTS -e 44 -c 2 -a 0 -i 0 -k MAC
h -t 0.240472778 -s 1 -d -1 -p RTS -e 44 -c 2 -a 0 -i 0 -k MAC
r -t 0.240825444 -s 0 -d -1 -p RTS -e 44 -c 2 -a 0 -i 0 -k MAC
+ -t 0.240835444 -s 0 -d -1 -p CTS -e 38 -c 2 -a 0 -i 0 -k MAC 
- -t 0.240835444 -s 0 -d -1 -p CTS -e 38 -c 2 -a 0 -i 0 -k MAC
h -t 0.240835444 -s 0 -d -1 -p CTS -e 38 -c 2 -a 0 -i 0 -k MAC
r -t 0.241140111 -s 1 -d -1 -p CTS -e 38 -c 2 -a 0 -i 0 -k MAC
+ -t 0.241150111 -s 1 -d 0 -p tcp -e 1098 -c 2 -a 0 -i 3 -k MAC 
- -t 0.241150111 -s 1 -d 0 -p tcp -e 1098 -c 2 -a 0 -i 3 -k MAC
h -t 0.241150111 -s 1 -d 0 -p tcp -e 1098 -c 2 -a 0 -i 3 -k MAC
+ -t 0.242975889 -s 0 -d -1 -p RTS -e 44 -c 2 -a 0 -i 0 -k MAC 
- -t 0.242975889 -s 0 -d -1 -p RTS -e 44 -c 2 -a 0 -i 0 -k MAC
h -t 0.242975889 -s 0 -d -1 -p RTS -e 44 -c 2 -a 0 -i 0 -k MAC
+ -t 0.243862556 -s 1 -d -1 -p RTS -e 44 -c 2 -a 0 -i 0 -k MAC 
- -t 0.243862556 -s 1 -d -1 -p RTS -e 44 -c 2 -a 0 -i 0 -k MAC
h -t 0.243862556 -s 1 -d -1 -p RTS -e 44 -c 2 -a 0 -i 0 -k MAC
+ -t 0.249769222 -s 0 -d -1 -p RTS -e 44 -c 2 -a 0 -i 0 -k MAC 
- -t 0.249769222 -s 0 -d -1 -p RTS -e 44 -c 2 -a 0 -i 0 -k MAC
h -t 0.249769222 -s 0 -d -1 -p RTS -e 44 -c 2 -a 0 -i 0 -k MAC
+ -t 0.257049222 -s 0 -d -1 -p RTS -e 44 -c 2 -a 0 -i 0 -k MAC 
- -t 0.257049222 -s 0 -d -1 -p RTS -e 44 -c 2 -a 0 -i 0 -k MAC
h -t 0.257049222 -s 0 -d -1 -p RTS -e 44 -c 2 -a 0 -i 0 -k MAC
r -t 0.257401889 -s 1 -d -1 -p RTS -e 44 -c 2 -a 0 -i 0 -k MAC
+ -t 0.257411889 -s 1 -d -1 -p CTS -e 38 -c 2 -a 0 -i 0 -k MAC 
- -t 0.257411889 -s 1 -d -1 -p CTS -e 38 -c 2 -a 0 -i 0 -k MAC
h -t 0.257411889 -s 1 -d -1 -p CTS -e 38 -c 2 -a 0 -i 0 -k MAC
r -t 0.257716556 -s 0 -d -1 -p CTS -e 38 -c 2 -a 0 -i 0 -k MAC
+ -t 0.257726556 -s 0 -d 1 -p ack -e 98 -c 2 -a 0 -i 4 -k MAC 
- -t 0.257726556 -s 0 -d 1 -p ack -e 98 -c 2 -a 0 -i 4 -k MAC
h -t 0.257726556 -s 0 -d 1 -p ack -e 98 -c 2 -a 0 -i 4 -k MAC
+ -t 0.258364185 -s 1 -d -1 -p RTS -e 44 -c 2 -a 0 -i 0 -k MAC 
- -t 0.258364185 -s 1 -d -1 -p RTS -e 44 -c 2 -a 0 -i 0 -k MAC
h -t 0.258364185 -s 1 -d -1 -p RTS -e 44 -c 2 -a 0 -i 0 -k MAC
r -t 0.258716852 -s 0 -d -1 -p RTS -e 44 -c 2 -a 0 -i 0 -k MAC
+ -t 0.258726852 -s 0 -d -1 -p CTS -e 38 -c 2 -a 0 -i 0 -k MAC 
- -t 0.258726852 -s 0 -d -1 -p CTS -e 38 -c 2 -a 0 -i 0 -k MAC
h -t 0.258726852 -s 0 -d -1 -p CTS -e 38 -c 2 -a 0 -i 0 -k MAC
+ -t 0.264705519 -s 1 -d -1 -p RTS -e 44 -c 2 -a 0 -i 0 -k MAC 
- -t 0.264705519 -s 1 -d -1 -p RTS -e 44 -c 2 -a 0 -i 0 -k MAC
h -t 0.264705519 -s 1 -d -1 -p RTS -e 44 -c 2 -a 0 -i 0 -k MAC
r -t 0.265058185 -s 0 -d -1 -p RTS -e 44 -c 2 -a 0 -i 0 -k MAC
+ -t 0.265068185 -s 0 -d -1 -p CTS -e 38 -c 2 -a 0 -i 0 -k MAC 
- -t 0.265068185 -s 0 -d -1 -p CTS -e 38 -c 2 -a 0 -i 0 -k MAC
h -t 0.265068185 -s 0 -d -1 -p CTS -e 38 -c 2 -a 0 -i 0 -k MAC
r -t 0.265372852 -s 1 -d -1 -p CTS -e 38 -c 2 -a 0 -i 0 -k MAC
+ -t 0.265382852 -s 1 -d 0 -p tcp -e 1098 -c 2 -a 0 -i 3 -k MAC 
- -t 0.265382852 -s 1 -d 0 -p tcp -e 1098 -c 2 -a 0 -i 3 -k MAC
h -t 0.265382852 -s 1 -d 0 -p tcp -e 1098 -c 2 -a 0 -i 3 -k MAC
r -t 0.265734630 -s 0 -d 0 -p tcp -e 1040 -c 2 -a 0 -i 3 -k MAC
+ -t 0.265744630 -s 0 -d -1 -p ACK -e 38 -c 2 -a 0 -i 0 -k MAC 
- -t 0.265744630 -s 0 -d -1 -p ACK -e 38 -c 2 -a 0 -i 0 -k MAC
h -t 0.265744630 -s 0 -d -1 -p ACK -e 38 -c 2 -a 0 -i 0 -k MAC
r -t 0.265759630 -s 0 -d 0 -p tcp -e 1040 -c 2 -a 0 -i 3 -k AGT
+ -t 0.265759630 -s 0 -d -1 -p ack -e 40 -c 2 -a 0 -i 7 -k AGT 
- -t 0.265759630 -s 0 -d -1 -p ack -e 40 -c 2 -a 0 -i 7 -k AGT
h -t 0.265759630 -s 0 -d -1 -p ack -e 40 -c 2 -a 0 -i 7 -k AGT
+ -t 0.265759630 -s 0 -d 1 -p ack -e 40 -c 2 -a 0 -i 7 -k RTR 
- -t 0.265759630 -s 0 -d 1 -p ack -e 40 -c 2 -a 0 -i 7 -k RTR
h -t 0.265759630 -s 0 -d 1 -p ack -e 40 -c 2 -a 0 -i 7 -k RTR
r -t 0.266049296 -s 1 -d -1 -p ACK -e 38 -c 2 -a 0 -i 0 -k MAC
+ -t 0.266459296 -s 1 -d -1 -p RTS -e 44 -c 2 -a 0 -i 0 -k MAC 
- -t 0.266459296 -s 1 -d -1 -p RTS -e 44 -c 2 -a 0 -i 0 -k MAC
h -t 0.266459296 -s 1 -d -1 -p RTS -e 44 -c 2 -a 0 -i 0 -k MAC
r -t 0.266811963 -s 0 -d -1 -p RTS -e 44 -c 2 -a 0 -i 0 -k MAC
+ -t 0.266821963 -s 0 -d -1 -p CTS -e 38 -c 2 -a 0 -i 0 -k MAC 
- -t 0.266821963 -s 0 -d -1 -p CTS -e 38 -c 2 -a 0 -i 0 -k MAC
h -t 0.266821963 -s 0 -d -1 -p CTS -e 38 -c 2 -a 0 -i 0 -k MAC
r -t 0.267126630 -s 1 -d -1 -p CTS -e 38 -c 2 -a 0 -i 0 -k MAC
+ -t 0.267136630 -s 1 -d 0 -p tcp -e 1098 -c 2 -a 0 -i 5 -k MAC 
- -t 0.267136630 -s 1 -d 0 -p tcp -e 1098 -c 2 -a 0 -i 5 -k MAC
h -t 0.267136630 -s 1 -d 0 -p tcp -e 1098 -c 2 -a 0 -i 5 -k MAC
+ -t 0.268155741 -s 1 -d -1 -p RTS -e 44 -c 2 -a 0 -i 0 -k MAC 
- -t 0.268155741 -s 1 -d -1 -p RTS -e 44 -c 2 -a 0 -i 0 -k MAC
h -t 0.268155741 -s 1 -d -1 -p RTS -e 44 -c 2 -a 0 -i 0 -k MAC
+ -t 0.271075741 -s 1 -d -1 -p RTS -e 44 -c 2 -a 0 -i 0 -k MAC 
- -t 0.271075741 -s 1 -d -1 -p RTS -e 44 -c 2 -a 0 -i 0 -k MAC
h -t 0.271075741 -s 1 -d -1 -p RTS -e 44 -c 2 -a 0 -i 0 -k MAC
+ -t 0.273935741 -s 1 -d -1 -p RTS -e 44 -c 2 -a 0 -i 0 -k MAC 
- -t 0.273935741 -s 1 -d -1 -p RTS -e 44 -c 2 -a 0 -i 0 -k MAC
h -t 0.273935741 -s 1 -d -1 -p RTS -e 44 -c 2 -a 0 -i 0 -k MAC
+ -t 0.274655741 -s 1 -d -1 -p RTS -e 44 -c 2 -a 0 -i 0 -k MAC 
- -t 0.274655741 -s 1 -d -1 -p RTS -e 44 -c 2 -a 0 -i 0 -k MAC
h -t 0.274655741 -s 1 -d -1 -p RTS -e 44 -c 2 -a 0 -i 0 -k MAC
r -t 0.275008407 -s 0 -d -1 -p RTS -e 44 -c 2 -a 0 -i 0 -k MAC
+ -t 0.275018407 -s 0 -d -1 -p CTS -e 38 -c 2 -a 0 -i 0 -k MAC 
- -t 0.275018407 -s 0 -d -1 -p CTS -e 38 -c 2 -a 0 -i 0 -k MAC
h -t 0.275018407 -s 0 -d -1 -p CTS -e 38 -c 2 -a 0 -i 0 -k MAC
r -t 0.275323074 -s 1 -d -1 -p CTS -e 38 -c 2 -a 0 -i 0 -k MAC
+ -t 0.275333074 -s 1 -d 0 -p tcp -e 1098 -c 2 -a 0 -i 5 -k MAC 
- -t 0.275333074 -s 1 -d 0 -p tcp -e 1098 -c 2 -a 0 -i 5 -k MAC
h -t 0.275333074 -s 1 -d 0 -p tcp -e 1098 -c 2 -a 0 -i 5 -k MAC
r -t 0.275684852 -s 0 -d 0 -p tcp -e 1040 -c 2 -a 0 -i 5 -k MAC
+ -t 0.275694852 -s 0 -d -1 -p ACK -e 38 -c 2 -a 0 -i 0 -k MAC 
- -t 0.275694852 -s 0 -d -1 -p ACK -e 38 -c 2 -a 0 -i 0 -k MAC
h -t 0.275694852 -s 0 -d -1 -p ACK -e 38 -c 2 -a 0 -i 0 -k MAC
r -t 0.275709852 -s 0 -d 0 -p tcp -e 1040 -c 2 -a 0 -i 5 -k AGT
+ -t 0.275709852 -s 0 -d -1 -p ack -e 40 -c 2 -a 0 -i 8 -k AGT 
- -t 0.275709852 -s 0 -d -1 -p ack -e 40 -c 2 -a 0 -i 8 -k AGT
h -t 0.275709852 -s 0 -d -1 -p ack -e 40 -c 2 -a 0 -i 8 -k AGT
+ -t 0.275709852 -s 0 -d 1 -p ack -e 40 -c 2 -a 0 -i 8 -k RTR 
- -t 0.275709852 -s 0 -d 1 -p ack -e 40 -c 2 -a 0 -i 8 -k RTR
h -t 0.275709852 -s 0 -d 1 -p ack -e 40 -c 2 -a 0 -i 8 -k RTR
+ -t 0.277728852 -s 0 -d -1 -p RTS -e 44 -c 2 -a 0 -i 0 -k MAC 
- -t 0.277728852 -s 0 -d -1 -p RTS -e 44 -c 2 -a 0 -i 0 -k MAC
h -t 0.277728852 -s 0 -d -1 -p RTS -e 44 -c 2 -a 0 -i 0 -k MAC
+ -t 0.283928852 -s 0 -d -1 -p RTS -e 44 -c 2 -a 0 -i 0 -k MAC 
- -t 0.283928852 -s 0 -d -1 -p RTS -e 44 -c 2 -a 0 -i 0 -k MAC
h -t 0.283928852 -s 0 -d -1 -p RTS -e 44 -c 2 -a 0 -i 0 -k MAC
+ -t 0.287995519 -s 1 -d -1 -p RTS -e 44 -c 2 -a 0 -i 0 -k MAC 
- -t 0.287995519 -s 1 -d -1 -p RTS -e 44 -c 2 -a 0 -i 0 -k MAC
h -t 0.287995519 -s 1 -d -1 -p RTS -e 44 -c 2 -a 0 -i 0 -k MAC
r -t 0.288348185 -s 0 -d -1 -p RTS -e 44 -c 2 -a 0 -i 0 -k MAC
+ -t 0.288358185 -s 0 -d -1 -p CTS -e 38 -c 2 -a 0 -i 0 -k MAC 
- -t 0.288358185 -s 0 -d -1 -p CTS -e 38 -c 2 -a 0 -i 0 -k MAC
h -t 0.288358185 -s 0 -d -1 -p CTS -e 38 -c 2 -a 0 -i 0 -k MAC
r -t 0.288662852 -s 1 -d -1 -p CTS -e 38 -c 2 -a 0 -i 0 -k MAC
+ -t 0.288672852 -s 1 -d 0 -p tcp -e 1098 -c 2 -a 0 -i 5 -k MAC 
- -t 0.288672852 -s 1 -d 0 -p tcp -e 1098 -c 2 -a 0 -i 5 -k MAC
h -t 0.288672852 -s 1 -d 0 -p tcp -e 1098 -c 2 -a 0 -i 5 -k MAC
d -t 0.289024630 -s 0 -d 0 -p tcp -e 1040 -c 2 -a 0 -i 5 -k MAC
+ -t 0.289034630 -s 0 -d -1 -p ACK -e 38 -c 2 -a 0 -i 0 -k MAC 
- -t 0.289034630 -s 0 -d -1 -p ACK -e 38 -c 2 -a 0 -i 0 -k MAC
h -t 0.289034630 -s 0 -d -1 -p ACK -e 38 -c 2 -a 0 -i 0 -k MAC
r -t 0.289339296 -s 1 -d -1 -p ACK -e 38 -c 2 -a 0 -i 0 -k MAC
+ -t 0.289589296 -s 1 -d -1 -p RTS -e 44 -c 2 -a 0 -i 0 -k MAC 
- -t 0.289589296 -s 1 -d -1 -p RTS -e 44 -c 2 -a 0 -i 0 -k MAC
h -t 0.289589296 -s 1 -d -1 -p RTS -e 44 -c 2 -a 0 -i 0 -k MAC
r -t 0.289941963 -s 0 -d -1 -p RTS -e 44 -c 2 -a 0 -i 0 -k MAC
+ -t 0.289951963 -s 0 -d -1 -p CTS -e 38 -c 2 -a 0 -i 0 -k MAC 
- -t 0.289951963 -s 0 -d -1 -p CTS -e 38 -c 2 -a 0 -i 0 -k MAC
h -t 0.289951963 -s 0 -d -1 -p CTS -e 38 -c 2 -a 0 -i 0 -k MAC
r -t 0.290256630 -s 1 -d -1 -p CTS -e 38 -c 2 -a 0 -i 0 -k MAC
+ -t 0.290266630 -s 1 -d 0 -p tcp -e 1098 -c 2 -a 0 -i 6 -k MAC 
- -t 0.290266630 -s 1 -d 0 -p tcp -e 1098 -c 2 -a 0 -i 6 -k MAC
h -t 0.290266630 -s 1 -d 0 -p tcp -e 1098 -c 2 -a 0 -i 6 -k MAC
+ -t 0.291185741 -s 1 -d -1 -p RTS -e 44 -c 2 -a 0 -i 0 -k MAC 
- -t 0.291185741 -s 1 -d -1 -p RTS -e 44 -c 2 -a 0 -i 0 -k MAC
h -t 0.291185741 -s 1 -d -1 -p RTS -e 44 -c 2 -a 0 -i 0 -k MAC
r -t 0.291538407 -s 0 -d -1 -p RTS -e 44 -c 2 -a 0 -i 0 -k MAC
+ -t 0.291548407 -s 0 -d -1 -p CTS -e 38 -c 2 -a 0 -i 0 -k MAC 
- -t 0.291548407 -s 0 -d -1 -p CTS -e 38 -c 2 -a 0 -i 0 -k MAC
h -t 0.291548407 -s 0 -d -1 -p CTS -e 38 -c 2 -a 0 -i 0 -k MAC
r -t 0.291853074 -s 1 -d -1 -p CTS -e 38 -c 2 -a 0 -i 0 -k MAC
+ -t 0.291863074 -s 1 -d 0 -p tcp -e 1098 -c 2 -a 0 -i 6 -k MAC 
- -t 0.291863074 -s 1 -d 0 -p tcp -e 1098 -c 2 -a 0 -i 6 -k MAC
h -t 0.291863074 -s 1 -d 0 -p tcp -e 1098 -c 2 -a 0 -i 6 -k MAC
r -t 0.292214852 -s 0 -d 0 -p tcp -e 1040 -c 2 -a 0 -i 6 -k MAC
+ -t 0.292224852 -s 0 -d -1 -p ACK -e 38 -c 2 -a 0 -i 0 -k MAC 
- -t 0.292224852 -s 0 -d -1 -p ACK -e 38 -c 2 -a 0 -i 0 -k MAC
h -t 0.292224852 -s 0 -d -1 -p ACK -e 38 -c 2 -a 0 -i 0 -k MAC
r -t 0.292239852 -s 0 -d 0 -p tcp -e 1040 -c 2 -a 0 -i 6 -k AGT
+ -t 0.292239852 -s 0 -d -1 -p ack -e 40 -c 2 -a 0 -i 9 -k AGT 
- -t 0.292239852 -s 0 -d -1 -p ack -e 40 -c 2 -a 0 -i 9 -k AGT
h -t 0.292239852 -s 0 -d -1 -p ack -e 40 -c 2 -a 0 -i 9 -k AGT
+ -t 0.292239852 -s 0 -d 1 -p ack -e 40 -c 2 -a 0 -i 9 -k RTR 
- -t 0.292239852 -s 0 -d 1 -p ack -e 40 -c 2 -a 0 -i 9 -k RTR
h -t 0.292239852 -s 0 -d 1 -p ack -e 40 -c 2 -a 0 -i 9 -k RTR
r -t 0.292529519 -s 1 -d -1 -p ACK -e 38 -c 2 -a 0 -i 0 -k MAC
+ -t 0.294698852 -s 0 -d -1 -p RTS -e 44 -c 2 -a 0 -i 0 -k MAC 
- -t 0.294698852 -s 0 -d -1 -p RTS -e 44 -c 2 -a 0 -i 0 -k MAC
h -t 0.294698852 -s 0 -d -1 -p RTS -e 44 -c 2 -a 0 -i 0 -k MAC
r -t 0.295051519 -s 1 -d -1 -p RTS -e 44 -c 2 -a 0 -i 0 -k MAC
+ -t 0.295061519 -s 1 -d -1 -p CTS -e 38 -c 2 -a 0 -i 0 -k MAC 
- -t 0.295061519 -s 1 -d -1 -p CTS -e 38 -c 2 -a 0 -i 0 -k MAC
h -t 0.295061519 -s 1 -d -1 -p CTS -e 38 -c 2 -a 0 -i 0 -k MAC
r -t 0.295366185 -s 0 -d -1 -p CTS -e 38 -c 2 -a 0 -i 0 -k MAC
+ -t 0.295376185 -s 0 -d 1 -p ack -e 98 -c 2 -a 0 -i 4 -k MAC 
- -t 0.295376185 -s 0 -d 1 -p ack -e 98 -c 2 -a 0 -i 4 -k MAC
h -t 0.295376185 -s 0 -d 1 -p ack -e 98 -c 2 -a 0 -i 4 -k MAC
d -t 0.295579815 -s 1 -d 1 -p ack -e 40 -c 2 -a 0 -i 4 -k MAC
+ -t 0.295589815 -s 1 -d -1 -p ACK -e 38 -c 2 -a 0 -i 0 -k MAC 
- -t 0.295589815 -s 1 -d -1 -p ACK -e 38 -c 2 -a 0 -i 0 -k MAC
h -t 0.295589815 -s 1 -d -1 -p ACK -e 38 -c 2 -a 0 -i 0 -k MAC
r -t 0.295894481 -s 0 -d -1 -p ACK -e 38 -c 2 -a 0 -i 0 -k MAC
+ -t 0.296064481 -s 0 -d -1 -p RTS -e 44 -c 2 -a 0 -i 0 -k MAC 
- -t 0.296064481 -s 0 -d -1 -p RTS -e 44 -c 2 -a 0 -i 0 -k MAC
h -t 0.296064481 -s 0 -d -1 -p RTS -e 44 -c 2 -a 0 -i 0 -k MAC
+ -t 0.297504481 -s 0 -d -1 -p RTS -e 44 -c 2 -a 0 -i 0 -k MAC 
- -t 0.297504481 -s 0 -d -1 -p RTS -e 44 -c 2 -a 0 -i 0 -k MAC
h -t 0.297504481 -s 0 -d -1 -p RTS -e 44 -c 2 -a 0 -i 0 -k MAC
r -t 0.297857148 -s 1 -d -1 -p RTS -e 44 -c 2 -a 0 -i 0 -k MAC
+ -t 0.297867148 -s 1 -d -1 -p CTS -e 38 -c 2 -a 0 -i 0 -k MAC 
- -t 0.297867148 -s 1 -d -1 -p CTS -e 38 -c 2 -a 0 -i 0 -k MAC
h -t 0.297867148 -s 1 -d -1 -p CTS -e 38 -c 2 -a 0 -i 0 -k MAC
r -t 0.298171815 -s 0 -d -1 -p CTS -e 38 -c 2 -a 0 -i 0 -k MAC
+ -t 0.298181815 -s 0 -d 1 -p ack -e 98 -c 2 -a 0 -i 7 -k MAC 
- -t 0.298181815 -s 0 -d 1 -p ack -e 98 -c 2 -a 0 -i 7 -k MAC
h -t 0.298181815 -s 0 -d 1 -p ack -e 98 -c 2 -a 0 -i 7 -k MAC
+ -t 0.298772778 -s 0 -d -1 -p RTS -e 44 -c 2 -a 0 -i 0 -k MAC 
- -t 0.298772778 -s 0 -d -1 -p RTS -e 44 -c 2 -a 0 -i 0 -k MAC
h -t 0.298772778 -s 0 -d -1 -p RTS -e 44 -c 2 -a 0 -i 0 -k MAC
r -t 0.299125444 -s 1 -d -1 -p RTS -e 44 -c 2 -a 0 -i 0 -k MAC
+ -t 0.299135444 -s 1 -d -1 -p CTS -e 38 -c 2 -a 0 -i 0 -k MAC 
- -t 0.299135444 -s 1 -d -1 -p CTS -e 38 -c 2 -a 0 -i 0 -k MAC
h -t 0.299135444 -s 1 -d -1 -p CTS -e 38 -c 2 -a 0 -i 0 -k MAC
r -t 0.299440111 -s 0 -d -1 -p CTS -e 38 -c 2 -a 0 -i 0 -k MAC
+ -t 0.299450111 -s 0 -d 1 -p ack -e 98 -c 2 -a 0 -i 7 -k MAC 
- -t 0.299450111 -s 0 -d 1 -p ack -e 98 -c 2 -a 0 -i 7 -k MAC
h -t 0.299450111 -s 0 -d 1 -p ack -e 98 -c 2 -a 0 -i 7 -k MAC
r -t 0.299653741 -s 1 -d 1 -p ack -e 40 -c 2 -a 0 -i 7 -k MAC
+ -t 0.299663741 -s 1 -d -1 -p ACK -e 38 -c 2 -a 0 -i 0 -k MAC 
- -t 0.299663741 -s 1 -d -1 -p ACK -e 38 -c 2 -a 0 -i 0 -k MAC
h -t 0.299663741 -s 1 -d -1 -p ACK -e 38 -c 2 -a 0 -i 0 -k MAC