M 0.10000 0 (258.00, 500.00, 0.00), (250.00, 500.00), 1000.00
M 0.10000 1 (400.00, 500.00, 0.00), (450.00, 500.00), 1000.00
s 0.200000000 _1_ AGT  --- 0 tcp 40 [0 0 0 0] ------- [1:0 0:0 32 0] [0 0] 0 0
r 0.200000000 _1_ RTR  --- 0 tcp 40 [0 0 0 0] ------- [1:0 0:0 32 0] [0 0] 0 0
s 0.200000000 _1_ RTR  --- 0 AODV 48 [0 0 0 0] ------- [1:255 -1:255 30 0] [0x2 1 1 [0 0] [1 4]] (REQUEST)
s 0.200115000 _1_ MAC  --- 0 AODV 106 [0 ffffffff 1 800] ------- [1:255 -1:255 30 0] [0x2 1 1 [0 0] [1 4]] (REQUEST)
r 0.200963667 _0_ MAC  --- 0 AODV 48 [0 ffffffff 1 800] ------- [1:255 -1:255 30 0] [0x2 1 1 [0 0] [1 4]] (REQUEST)
r 0.200988667 _0_ RTR  --- 0 AODV 48 [0 ffffffff 1 800] ------- [1:255 -1:255 30 0] [0x2 1 1 [0 0] [1 4]] (REQUEST)
s 0.200988667 _0_ RTR  --- 0 AODV 44 [0 0 0 0] ------- [0:255 1:255 30 1] [0x4 1 [0 4] 10.000000] (REPLY)
s 0.201343667 _0_ MAC  --- 0 ARP 86 [0 ffffffff 0 806] ------- [REQUEST 0/0 0/1]
r 0.202032333 _1_ MAC  --- 0 ARP 28 [0 ffffffff 0 806] ------- [REQUEST 0/0 0/1]
s 0.202322333 _1_ MAC  --- 0 RTS 44 [347 0 1 0] 
r 0.202675000 _0_ MAC  --- 0 RTS 44 [347 0 1 0] 
s 0.202685000 _0_ MAC  --- 0 CTS 38 [20d 1 0 0] 
r 0.202989667 _1_ MAC  --- 0 CTS 38 [20d 1 0 0] 
s 0.202999667 _1_ MAC  --- 0 ARP 86 [13a 0 1 806] ------- [REPLY 1/1 0/0]
r 0.203201519 _0_ MAC  --- 0 ARP 28 [13a 0 1 806] ------- [REPLY 1/1 0/0]
s 0.203211519 _0_ MAC  --- 0 ACK 38 [0 1 0 0] 
r 0.203516185 _1_ MAC  --- 0 ACK 38 [0 1 0 0] 
s 0.203645519 _0_ MAC  --- 0 RTS 44 [34a 1 0 0] 
r 0.203998185 _1_ MAC  --- 0 RTS 44 [34a 1 0 0] 
s 0.204008185 _1_ MAC  --- 0 CTS 38 [210 0 0 0] 
r 0.204312852 _0_ MAC  --- 0 CTS 38 [210 0 0 0] 
s 0.204322852 _0_ MAC  --- 0 AODV 102 [13a 1 0 800] ------- [0:255 1:255 30 1] [0x4 1 [0 4] 10.000000] (REPLY)
r 0.204527074 _1_ MAC  --- 0 AODV 44 [13a 1 0 800] ------- [0:255 1:255 30 1] [0x4 1 [0 4] 10.000000] (REPLY)
s 0.204537074 _1_ MAC  --- 0 ACK 38 [0 0 0 0] 
r 0.204552074 _1_ RTR  --- 0 AODV 44 [13a 1 0 800] ------- [0:255 1:255 30 1] [0x4 1 [0 4] 10.000000] (REPLY)
s 0.204552074 _1_ RTR  --- 0 tcp 40 [0 0 0 0] ------- [1:0 0:0 30 0] [0 0] 0 0
r 0.204841741 _0_ MAC  --- 0 ACK 38 [0 0 0 0] 
s 0.205051074 _1_ MAC  --- 0 RTS 44 [349 0 1 0] 
r 0.205403741 _0_ MAC  --- 0 RTS 44 [349 0 1 0] 
s 0.205413741 _0_ MAC  --- 0 CTS 38 [20f 1 0 0] 
r 0.205718407 _1_ MAC  --- 0 CTS 38 [20f 1 0 0] 
s 0.205728407 _1_ MAC  --- 0 tcp 98 [13a 0 1 800] ------- [1:0 0:0 30 0] [0 0] 0 0
r 0.205932037 _0_ MAC  --- 0 tcp 40 [13a 0 1 800] ------- [1:0 0:0 30 0] [0 0] 1 0
s 0.205942037 _0_ MAC  --- 0 ACK 38 [0 1 0 0] 
r 0.205957037 _0_ AGT  --- 0 tcp 40 [13a 0 1 800] ------- [1:0 0:0 30 0] [0 0] 1 0
s 0.205957037 _0_ AGT  --- 1 ack 40 [0 0 0 0] ------- [0:0 1:0 32 0] [0 0] 0 0
r 0.205957037 _0_ RTR  --- 1 ack 40 [0 0 0 0] ------- [0:0 1:0 32 0] [0 0] 0 0
s 0.205957037 _0_ RTR  --- 1 ack 40 [0 0 0 0] ------- [0:0 1:0 30 1] [0 0] 0 0
r 0.206246704 _1_ MAC  --- 0 ACK 38 [0 1 0 0] 
s 0.206356037 _0_ MAC  --- 0 RTS 44 [349 1 0 0] 
r 0.206708704 _1_ MAC  --- 0 RTS 44 [349 1 0 0] 
s 0.206718704 _1_ MAC  --- 0 CTS 38 [20f 0 0 0] 
r 0.207023370 _0_ MAC  --- 0 CTS 38 [20f 0 0 0] 
s 0.207033370 _0_ MAC  --- 1 ack 98 [13a 1 0 800] ------- [0:0 1:0 30 1] [0 0] 0 0
r 0.207237000 _1_ MAC  --- 1 ack 40 [13a 1 0 800] ------- [0:0 1:0 30 1] [0 0] 1 0
s 0.207247000 _1_ MAC  --- 0 ACK 38 [0 0 0 0] 
r 0.207262000 _1_ AGT  --- 1 ack 40 [13a 1 0 800] ------- [0:0 1:0 30 1] [0 0] 1 0
s 0.207262000 _1_ AGT  --- 2 tcp 1040 [0 0 0 0] ------- [1:0 0:0 32 0] [1 0] 0 0
r 0.207262000 _1_ RTR  --- 2 tcp 1040 [0 0 0 0] ------- [1:0 0:0 32 0] [1 0] 0 0
s 0.207262000 _1_ AGT  --- 3 tcp 1040 [0 0 0 0] ------- [1:0 0:0 32 0] [2 0] 0 0
r 0.207262000 _1_ RTR  --- 3 tcp 1040 [0 0 0 0] ------- [1:0 0:0 32 0] [2 0] 0 0
s 0.207262000 _1_ RTR  --- 2 tcp 1040 [0 0 0 0] ------- [1:0 0:0 30 0] [1 0] 0 0
s 0.207262000 _1_ RTR  --- 3 tcp 1040 [0 0 0 0] ------- [1:0 0:0 30 0] [2 0] 0 0
r 0.207551667 _0_ MAC  --- 0 ACK 38 [0 0 0 0] 
s 0.207781000 _1_ MAC  --- 0 RTS 44 [3dd 0 1 0] 
r 0.208133667 _0_ MAC  --- 0 RTS 44 [3dd 0 1 0] 
s 0.208143667 _0_ MAC  --- 0 CTS 38 [2a3 1 0 0] 
r 0.208448333 _1_ MAC  --- 0 CTS 38 [2a3 1 0 0] 
s 0.208458333 _1_ MAC  --- 2 tcp 1098 [13a 0 1 800] ------- [1:0 0:0 30 0] [1 0] 0 0
r 0.208810111 _0_ MAC  --- 2 tcp 1040 [13a 0 1 800] ------- [1:0 0:0 30 0] [1 0] 1 0
s 0.208820111 _0_ MAC  --- 0 ACK 38 [0 1 0 0] 
r 0.208835111 _0_ AGT  --- 2 tcp 1040 [13a 0 1 800] ------- [1:0 0:0 30 0] [1 0] 1 0
s 0.208835111 _0_ AGT  --- 4 ack 40 [0 0 0 0] ------- [0:0 1:0 32 0] [1 0] 0 0
r 0.208835111 _0_ RTR  --- 4 ack 40 [0 0 0 0] ------- [0:0 1:0 32 0] [1 0] 0 0
s 0.208835111 _0_ RTR  --- 4 ack 40 [0 0 0 0] ------- [0:0 1:0 30 1] [1 0] 0 0
r 0.209124778 _1_ MAC  --- 0 ACK 38 [0 1 0 0] 
s 0.209354111 _0_ MAC  --- 0 RTS 44 [349 1 0 0] 
r 0.209706778 _1_ MAC  --- 0 RTS 44 [349 1 0 0] 
s 0.209716778 _1_ MAC  --- 0 CTS 38 [20f 0 0 0] 
r 0.210021444 _0_ MAC  --- 0 CTS 38 [20f 0 0 0] 
s 0.210031444 _0_ MAC  --- 4 ack 98 [13a 1 0 800] ------- [0:0 1:0 30 1] [1 0] 0 0
r 0.210235074 _1_ MAC  --- 4 ack 40 [13a 1 0 800] ------- [0:0 1:0 30 1] [1 0] 1 0
s 0.210245074 _1_ MAC  --- 0 ACK 38 [0 0 0 0] 
r 0.210260074 _1_ AGT  --- 4 ack 40 [13a 1 0 800] ------- [0:0 1:0 30 1] [1 0] 1 0
s 0.210260074 _1_ AGT  --- 5 tcp 1040 [0 0 0 0] ------- [1:0 0:0 32 0] [3 0] 0 0
r 0.210260074 _1_ RTR  --- 5 tcp 1040 [0 0 0 0] ------- [1:0 0:0 32 0] [3 0] 0 0
s 0.210260074 _1_ AGT  --- 6 tcp 1040 [0 0 0 0] ------- [1:0 0:0 32 0] [4 0] 0 0
r 0.210260074 _1_ RTR  --- 6 tcp 1040 [0 0 0 0] ------- [1:0 0:0 32 0] [4 0] 0 0
s 0.210260074 _1_ RTR  --- 5 tcp 1040 [0 0 0 0] ------- [1:0 0:0 30 0] [3 0] 0 0
s 0.210260074 _1_ RTR  --- 6 tcp 1040 [0 0 0 0] ------- [1:0 0:0 30 0] [4 0] 0 0
r 0.210549741 _0_ MAC  --- 0 ACK 38 [0 0 0 0] 
s 0.210679074 _1_ MAC  --- 0 RTS 44 [3dd 0 1 0] 
r 0.211031741 _0_ MAC  --- 0 RTS 44 [3dd 0 1 0] 
s 0.211041741 _0_ MAC  --- 0 CTS 38 [2a3 1 0 0] 
r 0.211346407 _1_ MAC  --- 0 CTS 38 [2a3 1 0 0] 
s 0.211356407 _1_ MAC  --- 3 tcp 1098 [13a 0 1 800] ------- [1:0 0:0 30 0] [2 0] 0 0
r 0.211708185 _0_ MAC  --- 3 tcp 1040 [13a 0 1 800] ------- [1:0 0:0 30 0] [2 0] 1 0
s 0.211718185 _0_ MAC  --- 0 ACK 38 [0 1 0 0] 
r 0.211733185 _0_ AGT  --- 3 tcp 1040 [13a 0 1 800] ------- [1:0 0:0 30 0] [2 0] 1 0
s 0.211733185 _0_ AGT  --- 7 ack 40 [0 0 0 0] ------- [0:0 1:0 32 0] [2 0] 0 0
r 0.211733185 _0_ RTR  --- 7 ack 40 [0 0 0 0] ------- [0:0 1:0 32 0] [2 0] 0 0
s 0.211733185 _0_ RTR  --- 7 ack 40 [0 0 0 0] ------- [0:0 1:0 30 1] [2 0] 0 0
r 0.212022852 _1_ MAC  --- 0 ACK 38 [0 1 0 0] 
s 0.212112852 _1_ MAC  --- 0 RTS 44 [3dd 0 1 0] 
r 0.212465519 _0_ MAC  --- 0 RTS 44 [3dd 0 1 0] 
s 0.212475519 _0_ MAC  --- 0 CTS 38 [2a3 1 0 0] 
r 0.212780185 _1_ MAC  --- 0 CTS 38 [2a3 1 0 0] 
s 0.212790185 _1_ MAC  --- 5 tcp 1098 [13a 0 1 800] ------- [1:0 0:0 30 0] [3 0] 0 0
r 0.213141963 _0_ MAC  --- 5 tcp 1040 [13a 0 1 800] ------- [1:0 0:0 30 0] [3 0] 1 0
s 0.213151963 _0_ MAC  --- 0 ACK 38 [0 1 0 0] 
r 0.213166963 _0_ AGT  --- 5 tcp 1040 [13a 0 1 800] ------- [1:0 0:0 30 0] [3 0] 1 0
s 0.213166963 _0_ AGT  --- 8 ack 40 [0 0 0 0] ------- [0:0 1:0 32 0] [3 0] 0 0
r 0.213166963 _0_ RTR  --- 8 ack 40 [0 0 0 0] ------- [0:0 1:0 32 0] [3 0] 0 0
s 0.213166963 _0_ RTR  --- 8 ack 40 [0 0 0 0] ------- [0:0 1:0 30 1] [3 0] 0 0
r 0.213456630 _1_ MAC  --- 0 ACK 38 [0 1 0 0] 
s 0.213645963 _0_ MAC  --- 0 RTS 44 [349 1 0 0] 
r 0.213998630 _1_ MAC  --- 0 RTS 44 [349 1 0 0] 
s 0.214008630 _1_ MAC  --- 0 CTS 38 [20f 0 0 0] 
r 0.214313296 _0_ MAC  --- 0 CTS 38 [20f 0 0 0] 
s 0.214323296 _0_ MAC  --- 7 ack 98 [13a 1 0 800] ------- [0:0 1:0 30 1] [2 0] 0 0
r 0.214526926 _1_ MAC  --- 7 ack 40 [13a 1 0 800] ------- [0:0 1:0 30 1] [2 0] 1 0
s 0.214536926 _1_ MAC  --- 0 ACK 38 [0 0 0 0] 
r 0.214551926 _1_ AGT  --- 7 ack 40 [13a 1 0 800] ------- [0:0 1:0 30 1] [2 0] 1 0
s 0.214551926 _1_ AGT  --- 9 tcp 1040 [0 0 0 0] ------- [1:0 0:0 32 0] [5 0] 0 0
r 0.214551926 _1_ RTR  --- 9 tcp 1040 [0 0 0 0] ------- [1:0 0:0 32 0] [5 0] 0 0
s 0.214551926 _1_ AGT  --- 10 tcp 1040 [0 0 0 0] ------- [1:0 0:0 32 0] [6 0] 0 0
r 0.214551926 _1_ RTR  --- 10 tcp 1040 [0 0 0 0] ------- [1:0 0:0 32 0] [6 0] 0 0
s 0.214551926 _1_ RTR  --- 9 tcp 1040 [0 0 0 0] ------- [1:0 0:0 30 0] [5 0] 0 0
s 0.214551926 _1_ RTR  --- 10 tcp 1040 [0 0 0 0] ------- [1:0 0:0 30 0] [6 0] 0 0
r 0.214841593 _0_ MAC  --- 0 ACK 38 [0 0 0 0] 
s 0.215051593 _0_ MAC  --- 0 RTS 44 [349 1 0 0] 
r 0.215404259 _1_ MAC  --- 0 RTS 44 [349 1 0 0] 
s 0.215414259 _1_ MAC  --- 0 CTS 38 [20f 0 0 0] 
r 0.215718926 _0_ MAC  --- 0 CTS 38 [20f 0 0 0] 
s 0.215728926 _0_ MAC  --- 8 ack 98 [13a 1 0 800] ------- [0:0 1:0 30 1] [3 0] 0 0
r 0.215932556 _1_ MAC  --- 8 ack 40 [13a 1 0 800] ------- [0:0 1:0 30 1] [3 0] 1 0
s 0.215942556 _1_ MAC  --- 0 ACK 38 [0 0 0 0] 
r 0.215957556 _1_ AGT  --- 8 ack 40 [13a 1 0 800] ------- [0:0 1:0 30 1] [3 0] 1 0
s 0.215957556 _1_ AGT  --- 11 tcp 1040 [0 0 0 0] ------- [1:0 0:0 32 0] [7 0] 0 0
r 0.215957556 _1_ RTR  --- 11 tcp 1040 [0 0 0 0] ------- [1:0 0:0 32 0] [7 0] 0 0
s 0.215957556 _1_ AGT  --- 12 tcp 1040 [0 0 0 0] ------- [1:0 0:0 32 0] [8 0] 0 0
r 0.215957556 _1_ RTR  --- 12 tcp 1040 [0 0 0 0] ------- [1:0 0:0 32 0] [8 0] 0 0
s 0.215957556 _1_ RTR  --- 11 tcp 1040 [0 0 0 0] ------- [1:0 0:0 30 0] [7 0] 0 0
s 0.215957556 _1_ RTR  --- 12 tcp 1040 [0 0 0 0] ------- [1:0 0:0 30 0] [8 0] 0 0
r 0.216247222 _0_ MAC  --- 0 ACK 38 [0 0 0 0] 
s 0.216536556 _1_ MAC  --- 0 RTS 44 [3dd 0 1 0] 
r 0.216889222 _0_ MAC  --- 0 RTS 44 [3dd 0 1 0] 
s 0.216899222 _0_ MAC  --- 0 CTS 38 [2a3 1 0 0] 
r 0.217203889 _1_ MAC  --- 0 CTS 38 [2a3 1 0 0] 
s 0.217213889 _1_ MAC  --- 6 tcp 1098 [13a 0 1 800] ------- [1:0 0:0 30 0] [4 0] 0 0
r 0.217565667 _0_ MAC  --- 6 tcp 1040 [13a 0 1 800] ------- [1:0 0:0 30 0] [4 0] 1 0
s 0.217575667 _0_ MAC  --- 0 ACK 38 [0 1 0 0] 
r 0.217590667 _0_ AGT  --- 6 tcp 1040 [13a 0 1 800] ------- [1:0 0:0 30 0] [4 0] 1 0
s 0.217590667 _0_ AGT  --- 13 ack 40 [0 0 0 0] ------- [0:0 1:0 32 0] [4 0] 0 0
r 0.217590667 _0_ RTR  --- 13 ack 40 [0 0 0 0] ------- [0:0 1:0 32 0] [4 0] 0 0
s 0.217590667 _0_ RTR  --- 13 ack 40 [0 0 0 0] ------- [0:0 1:0 30 1] [4 0] 0 0
r 0.217880333 _1_ MAC  --- 0 ACK 38 [0 1 0 0] 
s 0.218049667 _0_ MAC  --- 0 RTS 44 [349 1 0 0] 
r 0.218402333 _1_ MAC  --- 0 RTS 44 [349 1 0 0] 
s 0.218412333 _1_ MAC  --- 0 CTS 38 [20f 0 0 0] 
r 0.218717000 _0_ MAC  --- 0 CTS 38 [20f 0 0 0] 
s 0.218727000 _0_ MAC  --- 13 ack 98 [13a 1 0 800] ------- [0:0 1:0 30 1] [4 0] 0 0
r 0.218930630 _1_ MAC  --- 13 ack 40 [13a 1 0 800] ------- [0:0 1:0 30 1] [4 0] 1 0
s 0.218940630 _1_ MAC  --- 0 ACK 38 [0 0 0 0] 
r 0.218955630 _1_ AGT  --- 13 ack 40 [13a 1 0 800] ------- [0:0 1:0 30 1] [4 0] 1 0
s 0.218955630 _1_ AGT  --- 14 tcp 1040 [0 0 0 0] ------- [1:0 0:0 32 0] [9 0] 0 0
r 0.218955630 _1_ RTR  --- 14 tcp 1040 [0 0 0 0] ------- [1:0 0:0 32 0] [9 0] 0 0
s 0.218955630 _1_ AGT  --- 15 tcp 1040 [0 0 0 0] ------- [1:0 0:0 32 0] [10 0] 0 0
r 0.218955630 _1_ RTR  --- 15 tcp 1040 [0 0 0 0] ------- [1:0 0:0 32 0] [10 0] 0 0
s 0.218955630 _1_ RTR  --- 14 tcp 1040 [0 0 0 0] ------- [1:0 0:0 30 0] [9 0] 0 0
s 0.218955630 _1_ RTR  --- 15 tcp 1040 [0 0 0 0] ------- [1:0 0:0 30 0] [10 0] 0 0
r 0.219245296 _0_ MAC  --- 0 ACK 38 [0 0 0 0] 
s 0.219414630 _1_ MAC  --- 0 RTS 44 [3dd 0 1 0] 
r 0.219767296 _0_ MAC  --- 0 RTS 44 [3dd 0 1 0] 
s 0.219777296 _0_ MAC  --- 0 CTS 38 [2a3 1 0 0] 
r 0.220081963 _1_ MAC  --- 0 CTS 38 [2a3 1 0 0] 
s 0.220091963 _1_ MAC  --- 9 tcp 1098 [13a 0 1 800] ------- [1:0 0:0 30 0] [5 0] 0 0
r 0.220443741 _0_ MAC  --- 9 tcp 1040 [13a 0 1 800] ------- [1:0 0:0 30 0] [5 0] 1 0
s 0.220453741 _0_ MAC  --- 0 ACK 38 [0 1 0 0] 
r 0.220468741 _0_ AGT  --- 9 tcp 1040 [13a 0 1 800] ------- [1:0 0:0 30 0] [5 0] 1 0
s 0.220468741 _0_ AGT  --- 16 ack 40 [0 0 0 0] ------- [0:0 1:0 32 0] [5 0] 0 0
r 0.220468741 _0_ RTR  --- 16 ack 40 [0 0 0 0] ------- [0:0 1:0 32 0] [5 0] 0 0
s 0.220468741 _0_ RTR  --- 16 ack 40 [0 0 0 0] ------- [0:0 1:0 30 1] [5 0] 0 0
r 0.220758407 _1_ MAC  --- 0 ACK 38 [0 1 0 0] 
s 0.220847741 _0_ MAC  --- 0 RTS 44 [349 1 0 0] 
r 0.221200407 _1_ MAC  --- 0 RTS 44 [349 1 0 0] 
s 0.221210407 _1_ MAC  --- 0 CTS 38 [20f 0 0 0] 
r 0.221515074 _0_ MAC  --- 0 CTS 38 [20f 0 0 0] 
s 0.221525074 _0_ MAC  --- 16 ack 98 [13a 1 0 800] ------- [0:0 1:0 30 1] [5 0] 0 0
r 0.221728704 _1_ MAC  --- 16 ack 40 [13a 1 0 800] ------- [0:0 1:0 30 1] [5 0] 1 0
s 0.221738704 _1_ MAC  --- 0 ACK 38 [0 0 0 0] 
r 0.221753704 _1_ AGT  --- 16 ack 40 [13a 1 0 800] ------- [0:0 1:0 30 1] [5 0] 1 0
s 0.221753704 _1_ AGT  --- 17 tcp 1040 [0 0 0 0] ------- [1:0 0:0 32 0] [11 0] 0 0
r 0.221753704 _1_ RTR  --- 17 tcp 1040 [0 0 0 0] ------- [1:0 0:0 32 0] [11 0] 0 0
s 0.221753704 _1_ AGT  --- 18 tcp 1040 [0 0 0 0] ------- [1:0 0:0 32 0] [12 0] 0 0
r 0.221753704 _1_ RTR  --- 18 tcp 1040 [0 0 0 0] ------- [1:0 0:0 32 0] [12 0] 0 0
s 0.221753704 _1_ RTR  --- 17 tcp 1040 [0 0 0 0] ------- [1:0 0:0 30 0] [11 0] 0 0
s 0.221753704 _1_ RTR  --- 18 tcp 1040 [0 0 0 0] ------- [1:0 0:0 30 0] [12 0] 0 0
r 0.222043370 _0_ MAC  --- 0 ACK 38 [0 0 0 0] 
s 0.222532704 _1_ MAC  --- 0 RTS 44 [3dd 0 1 0] 
r 0.222885370 _0_ MAC  --- 0 RTS 44 [3dd 0 1 0] 
s 0.222895370 _0_ MAC  --- 0 CTS 38 [2a3 1 0 0] 
r 0.223200037 _1_ MAC  --- 0 CTS 38 [2a3 1 0 0] 
s 0.223210037 _1_ MAC  --- 10 tcp 1098 [13a 0 1 800] ------- [1:0 0:0 30 0] [6 0] 0 0
r 0.223561815 _0_ MAC  --- 10 tcp 1040 [13a 0 1 800] ------- [1:0 0:0 30 0] [6 0] 1 0
s 0.223571815 _0_ MAC  --- 0 ACK 38 [0 1 0 0] 
r 0.223586815 _0_ AGT  --- 10 tcp 1040 [13a 0 1 800] ------- [1:0 0:0 30 0] [6 0] 1 0
s 0.223586815 _0_ AGT  --- 19 ack 40 [0 0 0 0] ------- [0:0 1:0 32 0] [6 0] 0 0
r 0.223586815 _0_ RTR  --- 19 ack 40 [0 0 0 0] ------- [0:0 1:0 32 0] [6 0] 0 0
s 0.223586815 _0_ RTR  --- 19 ack 40 [0 0 0 0] ------- [0:0 1:0 30 1] [6 0] 0 0
r 0.223876481 _1_ MAC  --- 0 ACK 38 [0 1 0 0] 
s 0.224126481 _1_ MAC  --- 0 RTS 44 [3dd 0 1 0] 
r 0.224479148 _0_ MAC  --- 0 RTS 44 [3dd 0 1 0] 
s 0.224489148 _0_ MAC  --- 0 CTS 38 [2a3 1 0 0] 
r 0.224793815 _1_ MAC  --- 0 CTS 38 [2a3 1 0 0] 
s 0.224803815 _1_ MAC  --- 11 tcp 1098 [13a 0 1 800] ------- [1:0 0:0 30 0] [7 0] 0 0
r 0.225155593 _0_ MAC  --- 11 tcp 1040 [13a 0 1 800] ------- [1:0 0:0 30 0] [7 0] 1 0
s 0.225165593 _0_ MAC  --- 0 ACK 38 [0 1 0 0] 
r 0.225180593 _0_ AGT  --- 11 tcp 1040 [13a 0 1 800] ------- [1:0 0:0 30 0] [7 0] 1 0
s 0.225180593 _0_ AGT  --- 20 ack 40 [0 0 0 0] ------- [0:0 1:0 32 0] [7 0] 0 0
r 0.225180593 _0_ RTR  --- 20 ack 40 [0 0 0 0] ------- [0:0 1:0 32 0] [7 0] 0 0
s 0.225180593 _0_ RTR  --- 20 ack 40 [0 0 0 0] ------- [0:0 1:0 30 1] [7 0] 0 0
r 0.225470259 _1_ MAC  --- 0 ACK 38 [0 1 0 0] 
s 0.225639593 _0_ MAC  --- 0 RTS 44 [349 1 0 0] 
r 0.225992259 _1_ MAC  --- 0 RTS 44 [349 1 0 0] 
s 0.226002259 _1_ MAC  --- 0 CTS 38 [20f 0 0 0] 
r 0.226306926 _0_ MAC  --- 0 CTS 38 [20f 0 0 0] 
s 0.226316926 _0_ MAC  --- 19 ack 98 [13a 1 0 800] ------- [0:0 1:0 30 1] [6 0] 0 0
r 0.226520556 _1_ MAC  --- 19 ack 40 [13a 1 0 800] ------- [0:0 1:0 30 1] [6 0] 1 0
s 0.226530556 _1_ MAC  --- 0 ACK 38 [0 0 0 0] 
r 0.226545556 _1_ AGT  --- 19 ack 40 [13a 1 0 800] ------- [0:0 1:0 30 1] [6 0] 1 0
s 0.226545556 _1_ AGT  --- 21 tcp 1040 [0 0 0 0] ------- [1:0 0:0 32 0] [13 0] 0 0
r 0.226545556 _1_ RTR  --- 21 tcp 1040 [0 0 0 0] ------- [1:0 0:0 32 0] [13 0] 0 0
s 0.226545556 _1_ AGT  --- 22 tcp 1040 [0 0 0 0] ------- [1:0 0:0 32 0] [14 0] 0 0
r 0.226545556 _1_ RTR  --- 22 tcp 1040 [0 0 0 0] ------- [1:0 0:0 32 0] [14 0] 0 0
s 0.226545556 _1_ RTR  --- 21 tcp 1040 [0 0 0 0] ------- [1:0 0:0 30 0] [13 0] 0 0
s 0.226545556 _1_ RTR  --- 22 tcp 1040 [0 0 0 0] ------- [1:0 0:0 30 0] [14 0] 0 0
r 0.226835222 _0_ MAC  --- 0 ACK 38 [0 0 0 0] 
s 0.226905222 _0_ MAC  --- 0 RTS 44 [349 1 0 0] 
r 0.227257889 _1_ MAC  --- 0 RTS 44 [349 1 0 0] 
s 0.227267889 _1_ MAC  --- 0 CTS 38 [20f 0 0 0] 
r 0.227572556 _0_ MAC  --- 0 CTS 38 [20f 0 0 0] 
s 0.227582556 _0_ MAC  --- 20 ack 98 [13a 1 0 800] ------- [0:0 1:0 30 1] [7 0] 0 0
r 0.227786185 _1_ MAC  --- 20 ack 40 [13a 1 0 800] ------- [0:0 1:0 30 1] [7 0] 1 0
s 0.227796185 _1_ MAC  --- 0 ACK 38 [0 0 0 0] 
r 0.227811185 _1_ AGT  --- 20 ack 40 [13a 1 0 800] ------- [0:0 1:0 30 1] [7 0] 1 0
s 0.227811185 _1_ AGT  --- 23 tcp 1040 [0 0 0 0] ------- [1:0 0:0 32 0] [15 0] 0 0
r 0.227811185 _1_ RTR  --- 23 tcp 1040 [0 0 0 0] ------- [1:0 0:0 32 0] [15 0] 0 0
s 0.227811185 _1_ AGT  --- 24 tcp 1040 [0 0 0 0] ------- [1:0 0:0 32 0] [16 0] 0 0
r 0.227811185 _1_ RTR  --- 24 tcp 1040 [0 0 0 0] ------- [1:0 0:0 32 0] [16 0] 0 0
s 0.227811185 _1_ RTR  --- 23 tcp 1040 [0 0 0 0] ------- [1:0 0:0 30 0] [15 0] 0 0
s 0.227811185 _1_ RTR  --- 24 tcp 1040 [0 0 0 0] ------- [1:0 0:0 30 0] [16 0] 0 0
r 0.228100852 _0_ MAC  --- 0 ACK 38 [0 0 0 0] 
s 0.228230185 _1_ MAC  --- 0 RTS 44 [3dd 0 1 0] 
r 0.228582852 _0_ MAC  --- 0 RTS 44 [3dd 0 1 0] 
s 0.228592852 _0_ MAC  --- 0 CTS 38 [2a3 1 0 0] 
r 0.228897519 _1_ MAC  --- 0 CTS 38 [2a3 1 0 0] 
s 0.228907519 _1_ MAC  --- 12 tcp 1098 [13a 0 1 800] ------- [1:0 0:0 30 0] [8 0] 0 0
r 0.229259296 _0_ MAC  --- 12 tcp 1040 [13a 0 1 800] ------- [1:0 0:0 30 0] [8 0] 1 0
s 0.229269296 _0_ MAC  --- 0 ACK 38 [0 1 0 0] 
r 0.229284296 _0_ AGT  --- 12 tcp 1040 [13a 0 1 800] ------- [1:0 0:0 30 0] [8 0] 1 0
s 0.229284296 _0_ AGT  --- 25 ack 40 [0 0 0 0] ------- [0:0 1:0 32 0] [8 0] 0 0
r 0.229284296 _0_ RTR  --- 25 ack 40 [0 0 0 0] ------- [0:0 1:0 32 0] [8 0] 0 0
s 0.229284296 _0_ RTR  --- 25 ack 40 [0 0 0 0] ------- [0:0 1:0 30 1] [8 0] 0 0
r 0.229573963 _1_ MAC  --- 0 ACK 38 [0 1 0 0] 
s 0.229803296 _0_ MAC  --- 0 RTS 44 [349 1 0 0] 
r 0.230155963 _1_ MAC  --- 0 RTS 44 [349 1 0 0] 
s 0.230165963 _1_ MAC  --- 0 CTS 38 [20f 0 0 0] 
r 0.230470630 _0_ MAC  --- 0 CTS 38 [20f 0 0 0] 
s 0.230480630 _0_ MAC  --- 25 ack 98 [13a 1 0 800] ------- [0:0 1:0 30 1] [8 0] 0 0
r 0.230684259 _1_ MAC  --- 25 ack 40 [13a 1 0 800] ------- [0:0 1:0 30 1] [8 0] 1 0
s 0.230694259 _1_ MAC  --- 0 ACK 38 [0 0 0 0] 
r 0.230709259 _1_ AGT  --- 25 ack 40 [13a 1 0 800] ------- [0:0 1:0 30 1] [8 0] 1 0
s 0.230709259 _1_ AGT  --- 26 tcp 1040 [0 0 0 0] ------- [1:0 0:0 32 0] [17 0] 0 0
r 0.230709259 _1_ RTR  --- 26 tcp 1040 [0 0 0 0] ------- [1:0 0:0 32 0] [17 0] 0 0
s 0.230709259 _1_ AGT  --- 27 tcp 1040 [0 0 0 0] ------- [1:0 0:0 32 0] [18 0] 0 0
r 0.230709259 _1_ RTR  --- 27 tcp 1040 [0 0 0 0] ------- [1:0 0:0 32 0] [18 0] 0 0
s 0.230709259 _1_ RTR  --- 26 tcp 1040 [0 0 0 0] ------- [1:0 0:0 30 0] [17 0] 0 0
s 0.230709259 _1_ RTR  --- 27 tcp 1040 [0 0 0 0] ------- [1:0 0:0 30 0] [18 0] 0 0
r 0.230998926 _0_ MAC  --- 0 ACK 38 [0 0 0 0] 
s 0.231308259 _1_ MAC  --- 0 RTS 44 [3dd 0 1 0] 
r 0.231660926 _0_ MAC  --- 0 RTS 44 [3dd 0 1 0] 
s 0.231670926 _0_ MAC  --- 0 CTS 38 [2a3 1 0 0] 
r 0.231975593 _1_ MAC  --- 0 CTS 38 [2a3 1 0 0] 
s 0.231985593 _1_ MAC  --- 14 tcp 1098 [13a 0 1 800] ------- [1:0 0:0 30 0] [9 0] 0 0
r 0.232337370 _0_ MAC  --- 14 tcp 1040 [13a 0 1 800] ------- [1:0 0:0 30 0] [9 0] 1 0
s 0.232347370 _0_ MAC  --- 0 ACK 38 [0 1 0 0] 
r 0.232362370 _0_ AGT  --- 14 tcp 1040 [13a 0 1 800] ------- [1:0 0:0 30 0] [9 0] 1 0
s 0.232362370 _0_ AGT  --- 28 ack 40 [0 0 0 0] ------- [0:0 1:0 32 0] [9 0] 0 0
r 0.232362370 _0_ RTR  --- 28 ack 40 [0 0 0 0] ------- [0:0 1:0 32 0] [9 0] 0 0
s 0.232362370 _0_ RTR  --- 28 ack 40 [0 0 0 0] ------- [0:0 1:0 30 1] [9 0] 0 0
r 0.232652037 _1_ MAC  --- 0 ACK 38 [0 1 0 0] 
s 0.233102037 _1_ MAC  --- 0 RTS 44 [3dd 0 1 0] 
r 0.233454704 _0_ MAC  --- 0 RTS 44 [3dd 0 1 0] 
s 0.233464704 _0_ MAC  --- 0 CTS 38 [2a3 1 0 0] 
r 0.233769370 _1_ MAC  --- 0 CTS 38 [2a3 1 0 0] 
s 0.233779370 _1_ MAC  --- 15 tcp 1098 [13a 0 1 800] ------- [1:0 0:0 30 0] [10 0] 0 0
r 0.234131148 _0_ MAC  --- 15 tcp 1040 [13a 0 1 800] ------- [1:0 0:0 30 0] [10 0] 1 0
s 0.234141148 _0_ MAC  --- 0 ACK 38 [0 1 0 0] 
r 0.234156148 _0_ AGT  --- 15 tcp 1040 [13a 0 1 800] ------- [1:0 0:0 30 0] [10 0] 1 0
s 0.234156148 _0_ AGT  --- 29 ack 40 [0 0 0 0] ------- [0:0 1:0 32 0] [10 0] 0 0
r 0.234156148 _0_ RTR  --- 29 ack 40 [0 0 0 0] ------- [0:0 1:0 32 0] [10 0] 0 0
s 0.234156148 _0_ RTR  --- 29 ack 40 [0 0 0 0] ------- [0:0 1:0 30 1] [10 0] 0 0
r 0.234445815 _1_ MAC  --- 0 ACK 38 [0 1 0 0] 
s 0.234675148 _0_ MAC  --- 0 RTS 44 [349 1 0 0] 
r 0.235027815 _1_ MAC  --- 0 RTS 44 [349 1 0 0] 
s 0.235037815 _1_ MAC  --- 0 CTS 38 [20f 0 0 0] 
r 0.235342481 _0_ MAC  --- 0 CTS 38 [20f 0 0 0] 
s 0.235352481 _0_ MAC  --- 28 ack 98 [13a 1 0 800] ------- [0:0 1:0 30 1] [9 0] 0 0
r 0.235556111 _1_ MAC  --- 28 ack 40 [13a 1 0 800] ------- [0:0 1:0 30 1] [9 0] 1 0
s 0.235566111 _1_ MAC  --- 0 ACK 38 [0 0 0 0] 
r 0.235581111 _1_ AGT  --- 28 ack 40 [13a 1 0 800] ------- [0:0 1:0 30 1] [9 0] 1 0
s 0.235581111 _1_ AGT  --- 30 tcp 1040 [0 0 0 0] ------- [1:0 0:0 32 0] [19 0] 0 0
r 0.235581111 _1_ RTR  --- 30 tcp 1040 [0 0 0 0] ------- [1:0 0:0 32 0] [19 0] 0 0
s 0.235581111 _1_ AGT  --- 31 tcp 1040 [0 0 0 0] ------- [1:0 0:0 32 0] [20 0] 0 0
r 0.235581111 _1_ RTR  --- 31 tcp 1040 [0 0 0 0] ------- [1:0 0:0 32 0] [20 0] 0 0
s 0.235581111 _1_ RTR  --- 30 tcp 1040 [0 0 0 0] ------- [1:0 0:0 30 0] [19 0] 0 0
s 0.235581111 _1_ RTR  --- 31 tcp 1040 [0 0 0 0] ------- [1:0 0:0 30 0] [20 0] 0 0
r 0.235870778 _0_ MAC  --- 0 ACK 38 [0 0 0 0] 
s 0.236280111 _1_ MAC  --- 0 RTS 44 [3dd 0 1 0] 
s 0.236280778 _0_ MAC  --- 0 RTS 44 [349 1 0 0] 
s 0.238067444 _1_ MAC  --- 0 RTS 44 [3dd 0 1 0] 
r 0.238420111 _0_ MAC  --- 0 RTS 44 [3dd 0 1 0] 
s 0.238430111 _0_ MAC  --- 0 CTS 38 [2a3 1 0 0] 
r 0.238734778 _1_ MAC  --- 0 CTS 38 [2a3 1 0 0] 
s 0.238744778 _1_ MAC  --- 17 tcp 1098 [13a 0 1 800] ------- [1:0 0:0 30 0] [11 0] 0 0
r 0.239096556 _0_ MAC  --- 17 tcp 1040 [13a 0 1 800] ------- [1:0 0:0 30 0] [11 0] 1 0
s 0.239106556 _0_ MAC  --- 0 ACK 38 [0 1 0 0] 
r 0.239121556 _0_ AGT  --- 17 tcp 1040 [13a 0 1 800] ------- [1:0 0:0 30 0] [11 0] 1 0
s 0.239121556 _0_ AGT  --- 32 ack 40 [0 0 0 0] ------- [0:0 1:0 32 0] [11 0] 0 0
r 0.239121556 _0_ RTR  --- 32 ack 40 [0 0 0 0] ------- [0:0 1:0 32 0] [11 0] 0 0
s 0.239121556 _0_ RTR  --- 32 ack 40 [0 0 0 0] ------- [0:0 1:0 30 1] [11 0] 0 0
r 0.239411222 _1_ MAC  --- 0 ACK 38 [0 1 0 0] 
s 0.239560556 _0_ MAC  --- 0 RTS 44 [349 1 0 0] 
r 0.239913222 _1_ MAC  --- 0 RTS 44 [349 1 0 0] 
s 0.239923222 _1_ MAC  --- 0 CTS 38 [20f 0 0 0] 
r 0.240227889 _0_ MAC  --- 0 CTS 38 [20f 0 0 0] 
s 0.240237889 _0_ MAC  --- 29 ack 98 [13a 1 0 800] ------- [0:0 1:0 30 1] [10 0] 0 0
r 0.240441519 _1_ MAC  --- 29 ack 40 [13a 1 0 800] ------- [0:0 1:0 30 1] [10 0] 1 0
s 0.240451519 _1_ MAC  --- 0 ACK 38 [0 0 0 0] 
r 0.240466519 _1_ AGT  --- 29 ack 40 [13a 1 0 800] ------- [0:0 1:0 30 1] [10 0] 1 0
s 0.240466519 _1_ AGT  --- 33 tcp 1040 [0 0 0 0] ------- [1:0 0:0 32 0] [21 0] 0 0
r 0.240466519 _1_ RTR  --- 33 tcp 1040 [0 0 0 0] ------- [1:0 0:0 32 0] [21 0] 0 0
s 0.240466519 _1_ AGT  --- 34 tcp 1040 [0 0 0 0] ------- [1:0 0:0 32 0] [22 0] 0 0
r 0.240466519 _1_ RTR  --- 34 tcp 1040 [0 0 0 0] ------- [1:0 0:0 32 0] [22 0] 0 0
s 0.240466519 _1_ RTR  --- 33 tcp 1040 [0 0 0 0] ------- [1:0 0:0 30 0] [21 0] 0 0
s 0.240466519 _1_ RTR  --- 34 tcp 1040 [0 0 0 0] ------- [1:0 0:0 30 0] [22 0] 0 0
r 0.240756185 _0_ MAC  --- 0 ACK 38 [0 0 0 0] 
s 0.240946185 _0_ MAC  --- 0 RTS 44 [349 1 0 0] 
r 0.241298852 _1_ MAC  --- 0 RTS 44 [349 1 0 0] 
s 0.241308852 _1_ MAC  --- 0 CTS 38 [20f 0 0 0] 
r 0.241613519 _0_ MAC  --- 0 CTS 38 [20f 0 0 0] 
s 0.241623519 _0_ MAC  --- 32 ack 98 [13a 1 0 800] ------- [0:0 1:0 30 1] [11 0] 0 0
r 0.241827148 _1_ MAC  --- 32 ack 40 [13a 1 0 800] ------- [0:0 1:0 30 1] [11 0] 1 0
s 0.241837148 _1_ MAC  --- 0 ACK 38 [0 0 0 0] 
r 0.241852148 _1_ AGT  --- 32 ack 40 [13a 1 0 800] ------- [0:0 1:0 30 1] [11 0] 1 0
s 0.241852148 _1_ AGT  --- 35 tcp 1040 [0 0 0 0] ------- [1:0 0:0 32 0] [23 0] 0 0
r 0.241852148 _1_ RTR  --- 35 tcp 1040 [0 0 0 0] ------- [1:0 0:0 32 0] [23 0] 0 0
s 0.241852148 _1_ AGT  --- 36 tcp 1040 [0 0 0 0] ------- [1:0 0:0 32 0] [24 0] 0 0
r 0.241852148 _1_ RTR  --- 36 tcp 1040 [0 0 0 0] ------- [1:0 0:0 32 0] [24 0] 0 0
s 0.241852148 _1_ RTR  --- 35 tcp 1040 [0 0 0 0] ------- [1:0 0:0 30 0] [23 0] 0 0
s 0.241852148 _1_ RTR  --- 36 tcp 1040 [0 0 0 0] ------- [1:0 0:0 30 0] [24 0] 0 0
r 0.242141815 _0_ MAC  --- 0 ACK 38 [0 0 0 0] 
s 0.242311148 _1_ MAC  --- 0 RTS 44 [3dd 0 1 0] 
r 0.242663815 _0_ MAC  --- 0 RTS 44 [3dd 0 1 0] 
s 0.242673815 _0_ MAC  --- 0 CTS 38 [2a3 1 0 0] 
r 0.242978481 _1_ MAC  --- 0 CTS 38 [2a3 1 0 0] 
s 0.242988481 _1_ MAC  --- 18 tcp 1098 [13a 0 1 800] ------- [1:0 0:0 30 0] [12 0] 0 0
r 0.243340259 _0_ MAC  --- 18 tcp 1040 [13a 0 1 800] ------- [1:0 0:0 30 0] [12 0] 1 0
s 0.243350259 _0_ MAC  --- 0 ACK 38 [0 1 0 0] 
r 0.243365259 _0_ AGT  --- 18 tcp 1040 [13a 0 1 800] ------- [1:0 0:0 30 0] [12 0] 1 0
s 0.243365259 _0_ AGT  --- 37 ack 40 [0 0 0 0] ------- [0:0 1:0 32 0] [12 0] 0 0
r 0.243365259 _0_ RTR  --- 37 ack 40 [0 0 0 0] ------- [0:0 1:0 32 0] [12 0] 0 0
s 0.243365259 _0_ RTR  --- 37 ack 40 [0 0 0 0] ------- [0:0 1:0 30 1] [12 0] 0 0
r 0.243654926 _1_ MAC  --- 0 ACK 38 [0 1 0 0] 
s 0.243904926 _1_ MAC  --- 0 RTS 44 [3dd 0 1 0] 
r 0.244257593 _0_ MAC  --- 0 RTS 44 [3dd 0 1 0] 
s 0.244267593 _0_ MAC  --- 0 CTS 38 [2a3 1 0 0] 
r 0.244572259 _1_ MAC  --- 0 CTS 38 [2a3 1 0 0] 
s 0.244582259 _1_ MAC  --- 21 tcp 1098 [13a 0 1 800] ------- [1:0 0:0 30 0] [13 0] 0 0
r 0.244934037 _0_ MAC  --- 21 tcp 1040 [13a 0 1 800] ------- [1:0 0:0 30 0] [13 0] 1 0
s 0.244944037 _0_ MAC  --- 0 ACK 38 [0 1 0 0] 
r 0.244959037 _0_ AGT  --- 21 tcp 1040 [13a 0 1 800] ------- [1:0 0:0 30 0] [13 0] 1 0
s 0.244959037 _0_ AGT  --- 38 ack 40 [0 0 0 0] ------- [0:0 1:0 32 0] [13 0] 0 0
r 0.244959037 _0_ RTR  --- 38 ack 40 [0 0 0 0] ------- [0:0 1:0 32 0] [13 0] 0 0
s 0.244959037 _0_ RTR  --- 38 ack 40 [0 0 0 0] ------- [0:0 1:0 30 1] [13 0] 0 0
r 0.245248704 _1_ MAC  --- 0 ACK 38 [0 1 0 0] 
s 0.245378037 _0_ MAC  --- 0 RTS 44 [349 1 0 0] 
r 0.245730704 _1_ MAC  --- 0 RTS 44 [349 1 0 0] 
s 0.245740704 _1_ MAC  --- 0 CTS 38 [20f 0 0 0] 
r 0.246045370 _0_ MAC  --- 0 CTS 38 [20f 0 0 0] 
s 0.246055370 _0_ MAC  --- 37 ack 98 [13a 1 0 800] ------- [0:0 1:0 30 1] [12 0] 0 0
r 0.246259000 _1_ MAC  --- 37 ack 40 [13a 1 0 800] ------- [0:0 1:0 30 1] [12 0] 1 0
s 0.246269000 _1_ MAC  --- 0 ACK 38 [0 0 0 0] 
r 0.246284000 _1_ AGT  --- 37 ack 40 [13a 1 0 800] ------- [0:0 1:0 30 1] [12 0] 1 0
s 0.246284000 _1_ AGT  --- 39 tcp 1040 [0 0 0 0] ------- [1:0 0:0 32 0] [25 0] 0 0
r 0.246284000 _1_ RTR  --- 39 tcp 1040 [0 0 0 0] ------- [1:0 0:0 32 0] [25 0] 0 0
s 0.246284000 _1_ AGT  --- 40 tcp 1040 [0 0 0 0] ------- [1:0 0:0 32 0] [26 0] 0 0
r 0.246284000 _1_ RTR  --- 40 tcp 1040 [0 0 0 0] ------- [1:0 0:0 32 0] [26 0] 0 0
s 0.246284000 _1_ RTR  --- 39 tcp 1040 [0 0 0 0] ------- [1:0 0:0 30 0] [25 0] 0 0
s 0.246284000 _1_ RTR  --- 40 tcp 1040 [0 0 0 0] ------- [1:0 0:0 30 0] [26 0] 0 0
r 0.246573667 _0_ MAC  --- 0 ACK 38 [0 0 0 0] 
s 0.246663000 _1_ MAC  --- 0 RTS 44 [3dd 0 1 0] 
r 0.247015667 _0_ MAC  --- 0 RTS 44 [3dd 0 1 0] 
s 0.247025667 _0_ MAC  --- 0 CTS 38 [2a3 1 0 0] 
r 0.247330333 _1_ MAC  --- 0 CTS 38 [2a3 1 0 0] 
s 0.247340333 _1_ MAC  --- 22 tcp 1098 [13a 0 1 800] ------- [1:0 0:0 30 0] [14 0] 0 0
r 0.247692111 _0_ MAC  --- 22 tcp 1040 [13a 0 1 800] ------- [1:0 0:0 30 0] [14 0] 1 0
s 0.247702111 _0_ MAC  --- 0 ACK 38 [0 1 0 0] 
r 0.247717111 _0_ AGT  --- 22 tcp 1040 [13a 0 1 800] ------- [1:0 0:0 30 0] [14 0] 1 0
s 0.247717111 _0_ AGT  --- 41 ack 40 [0 0 0 0] ------- [0:0 1:0 32 0] [14 0] 0 0
r 0.247717111 _0_ RTR  --- 41 ack 40 [0 0 0 0] ------- [0:0 1:0 32 0] [14 0] 0 0
s 0.247717111 _0_ RTR  --- 41 ack 40 [0 0 0 0] ------- [0:0 1:0 30 1] [14 0] 0 0
r 0.248006778 _1_ MAC  --- 0 ACK 38 [0 1 0 0] 
s 0.248276778 _1_ MAC  --- 0 RTS 44 [3dd 0 1 0] 
r 0.248629444 _0_ MAC  --- 0 RTS 44 [3dd 0 1 0] 
s 0.248639444 _0_ MAC  --- 0 CTS 38 [2a3 1 0 0] 
r 0.248944111 _1_ MAC  --- 0 CTS 38 [2a3 1 0 0] 
s 0.248954111 _1_ MAC  --- 23 tcp 1098 [13a 0 1 800] ------- [1:0 0:0 30 0] [15 0] 0 0
r 0.249305889 _0_ MAC  --- 23 tcp 1040 [13a 0 1 800] ------- [1:0 0:0 30 0] [15 0] 1 0
s 0.249315889 _0_ MAC  --- 0 ACK 38 [0 1 0 0] 
r 0.249330889 _0_ AGT  --- 23 tcp 1040 [13a 0 1 800] ------- [1:0 0:0 30 0] [15 0] 1 0
s 0.249330889 _0_ AGT  --- 42 ack 40 [0 0 0 0] ------- [0:0 1:0 32 0] [15 0] 0 0
r 0.249330889 _0_ RTR  --- 42 ack 40 [0 0 0 0] ------- [0:0 1:0 32 0] [15 0] 0 0
s 0.249330889 _0_ RTR  --- 42 ack 40 [0 0 0 0] ------- [0:0 1:0 30 1] [15 0] 0 0
r 0.249620556 _1_ MAC  --- 0 ACK 38 [0 1 0 0] 
s 0.249870556 _1_ MAC  --- 0 RTS 44 [3dd 0 1 0] 
r 0.250223222 _0_ MAC  --- 0 RTS 44 [3dd 0 1 0] 
s 0.250233222 _0_ MAC  --- 0 CTS 38 [2a3 1 0 0] 
r 0.250537889 _1_ MAC  --- 0 CTS 38 [2a3 1 0 0] 
s 0.250547889 _1_ MAC  --- 24 tcp 1098 [13a 0 1 800] ------- [1:0 0:0 30 0] [16 0] 0 0
r 0.250899667 _0_ MAC  --- 24 tcp 1040 [13a 0 1 800] ------- [1:0 0:0 30 0] [16 0] 1 0
s 0.250909667 _0_ MAC  --- 0 ACK 38 [0 1 0 0] 
r 0.250924667 _0_ AGT  --- 24 tcp 1040 [13a 0 1 800] ------- [1:0 0:0 30 0] [16 0] 1 0
s 0.250924667 _0_ AGT  --- 43 ack 40 [0 0 0 0] ------- [0:0 1:0 32 0] [16 0] 0 0
r 0.250924667 _0_ RTR  --- 43 ack 40 [0 0 0 0] ------- [0:0 1:0 32 0] [16 0] 0 0
s 0.250924667 _0_ RTR  --- 43 ack 40 [0 0 0 0] ------- [0:0 1:0 30 1] [16 0] 0 0
r 0.251214333 _1_ MAC  --- 0 ACK 38 [0 1 0 0] 
s 0.251323667 _0_ MAC  --- 0 RTS 44 [349 1 0 0] 
r 0.251676333 _1_ MAC  --- 0 RTS 44 [349 1 0 0] 
s 0.251686333 _1_ MAC  --- 0 CTS 38 [20f 0 0 0] 
r 0.251991000 _0_ MAC  --- 0 CTS 38 [20f 0 0 0] 
s 0.252001000 _0_ MAC  --- 38 ack 98 [13a 1 0 800] ------- [0:0 1:0 30 1] [13 0] 0 0
r 0.252204630 _1_ MAC  --- 38 ack 40 [13a 1 0 800] ------- [0:0 1:0 30 1] [13 0] 1 0
s 0.252214630 _1_ MAC  --- 0 ACK 38 [0 0 0 0] 
r 0.252229630 _1_ AGT  --- 38 ack 40 [13a 1 0 800] ------- [0:0 1:0 30 1] [13 0] 1 0
s 0.252229630 _1_ AGT  --- 44 tcp 1040 [0 0 0 0] ------- [1:0 0:0 32 0] [27 0] 0 0
r 0.252229630 _1_ RTR  --- 44 tcp 1040 [0 0 0 0] ------- [1:0 0:0 32 0] [27 0] 0 0
s 0.252229630 _1_ AGT  --- 45 tcp 1040 [0 0 0 0] ------- [1:0 0:0 32 0] [28 0] 0 0
r 0.252229630 _1_ RTR  --- 45 tcp 1040 [0 0 0 0] ------- [1:0 0:0 32 0] [28 0] 0 0