n -t * -s 0  -x 0 -y 0 -Z 0 -z 40  -v circle -c black
n -t * -s 1  -x 0 -y 0 -Z 0 -z 40  -v circle -c black
V -t * -v 1.0a5 -a 0
W -t * -x 1000 -y 1000
A -t * -n 1 -p 0 -o 0x7fffffff -c 30 -a 1
A -t * -h 1 -m 1073741823 -s 0
n -t 0.100000 -s 0 -x 258.000000 -y 500.000000 -U -1000.000000 -V 0.000000 -T 0.008000
n -t 0.100000 -s 1 -x 400.000000 -y 500.000000 -U 0.000000 -V 0.000000 -T 0.000000
+ -t 0.200000000 -s 1 -d -1 -p tcp -e 40 -c 2 -a 0 -i 0 -k AGT 
- -t 0.200000000 -s 1 -d -1 -p tcp -e 40 -c 2 -a 0 -i 0 -k AGT
h -t 0.200000000 -s 1 -d -1 -p tcp -e 40 -c 2 -a 0 -i 0 -k AGT
+ -t 0.200000000 -s 1 -d -1 -p AODV -e 48 -c 2 -a 0 -i 0 -k RTR 
- -t 0.200000000 -s 1 -d -1 -p AODV -e 48 -c 2 -a 0 -i 0 -k RTR
h -t 0.200000000 -s 1 -d -1 -p AODV -e 48 -c 2 -a 0 -i 0 -k RTR
+ -t 0.200115000 -s 1 -d -1 -p AODV -e 106 -c 2 -a 0 -i 0 -k MAC 
- -t 0.200115000 -s 1 -d -1 -p AODV -e 106 -c 2 -a 0 -i 0 -k MAC
h -t 0.200115000 -s 1 -d -1 -p AODV -e 106 -c 2 -a 0 -i 0 -k MAC
r -t 0.200963500 -s 0 -d -1 -p AODV -e 48 -c 2 -a 0 -i 0 -k MAC
r -t 0.200988500 -s 0 -d -1 -p AODV -e 48 -c 2 -a 0 -i 0 -k RTR
+ -t 0.200988500 -s 0 -d 1 -p AODV -e 44 -c 2 -a 0 -i 0 -k RTR 
- -t 0.200988500 -s 0 -d 1 -p AODV -e 44 -c 2 -a 0 -i 0 -k RTR
h -t 0.200988500 -s 0 -d 1 -p AODV -e 44 -c 2 -a 0 -i 0 -k RTR
+ -t 0.201343500 -s 0 -d -1 -p ARP -e 86 -c 2 -a 0 -i 0 -k MAC 
- -t 0.201343500 -s 0 -d -1 -p ARP -e 86 -c 2 -a 0 -i 0 -k MAC
h -t 0.201343500 -s 0 -d -1 -p ARP -e 86 -c 2 -a 0 -i 0 -k MAC
r -t 0.202032000 -s 1 -d -1 -p ARP -e 28 -c 2 -a 0 -i 0 -k MAC
+ -t 0.202322000 -s 1 -d -1 -p RTS -e 44 -c 2 -a 0 -i 0 -k MAC 
- -t 0.202322000 -s 1 -d -1 -p RTS -e 44 -c 2 -a 0 -i 0 -k MAC
h -t 0.202322000 -s 1 -d -1 -p RTS -e 44 -c 2 -a 0 -i 0 -k MAC
r -t 0.202674500 -s 0 -d -1 -p RTS -e 44 -c 2 -a 0 -i 0 -k MAC
+ -t 0.202684500 -s 0 -d -1 -p CTS -e 38 -c 2 -a 0 -i 0 -k MAC 
- -t 0.202684500 -s 0 -d -1 -p CTS -e 38 -c 2 -a 0 -i 0 -k MAC
h -t 0.202684500 -s 0 -d -1 -p CTS -e 38 -c 2 -a 0 -i 0 -k MAC
r -t 0.202989000 -s 1 -d -1 -p CTS -e 38 -c 2 -a 0 -i 0 -k MAC
+ -t 0.202999000 -s 1 -d -1 -p ARP -e 86 -c 2 -a 0 -i 0 -k MAC 
- -t 0.202999000 -s 1 -d -1 -p ARP -e 86 -c 2 -a 0 -i 0 -k MAC
h -t 0.202999000 -s 1 -d -1 -p ARP -e 86 -c 2 -a 0 -i 0 -k MAC
r -t 0.203200685 -s 0 -d -1 -p ARP -e 28 -c 2 -a 0 -i 0 -k MAC
+ -t 0.203210685 -s 0 -d -1 -p ACK -e 38 -c 2 -a 0 -i 0 -k MAC 
- -t 0.203210685 -s 0 -d -1 -p ACK -e 38 -c 2 -a 0 -i 0 -k MAC
h -t 0.203210685 -s 0 -d -1 -p ACK -e 38 -c 2 -a 0 -i 0 -k MAC
+ -t 0.203644685 -s 0 -d -1 -p RTS -e 44 -c 2 -a 0 -i 0 -k MAC 
- -t 0.203644685 -s 0 -d -1 -p RTS -e 44 -c 2 -a 0 -i 0 -k MAC
h -t 0.203644685 -s 0 -d -1 -p RTS -e 44 -c 2 -a 0 -i 0 -k MAC
+ -t 0.204444685 -s 0 -d -1 -p RTS -e 44 -c 2 -a 0 -i 0 -k MAC 
- -t 0.204444685 -s 0 -d -1 -p RTS -e 44 -c 2 -a 0 -i 0 -k MAC
h -t 0.204444685 -s 0 -d -1 -p RTS -e 44 -c 2 -a 0 -i 0 -k MAC
r -t 0.204797185 -s 1 -d -1 -p RTS -e 44 -c 2 -a 0 -i 0 -k MAC
+ -t 0.204807185 -s 1 -d -1 -p CTS -e 38 -c 2 -a 0 -i 0 -k MAC 
- -t 0.204807185 -s 1 -d -1 -p CTS -e 38 -c 2 -a 0 -i 0 -k MAC
h -t 0.204807185 -s 1 -d -1 -p CTS -e 38 -c 2 -a 0 -i 0 -k MAC
+ -t 0.206019185 -s 1 -d -1 -p RTS -e 44 -c 2 -a 0 -i 0 -k MAC 
- -t 0.206019185 -s 1 -d -1 -p RTS -e 44 -c 2 -a 0 -i 0 -k MAC
h -t 0.206019185 -s 1 -d -1 -p RTS -e 44 -c 2 -a 0 -i 0 -k MAC
r -t 0.206371685 -s 0 -d -1 -p RTS -e 44 -c 2 -a 0 -i 0 -k MAC
+ -t 0.206381685 -s 0 -d -1 -p CTS -e 38 -c 2 -a 0 -i 0 -k MAC 
- -t 0.206381685 -s 0 -d -1 -p CTS -e 38 -c 2 -a 0 -i 0 -k MAC
h -t 0.206381685 -s 0 -d -1 -p CTS -e 38 -c 2 -a 0 -i 0 -k MAC
r -t 0.206686185 -s 1 -d -1 -p CTS -e 38 -c 2 -a 0 -i 0 -k MAC
+ -t 0.206696185 -s 1 -d -1 -p ARP -e 86 -c 2 -a 0 -i 0 -k MAC 
- -t 0.206696185 -s 1 -d -1 -p ARP -e 86 -c 2 -a 0 -i 0 -k MAC
h -t 0.206696185 -s 1 -d -1 -p ARP -e 86 -c 2 -a 0 -i 0 -k MAC
d -t 0.206897870 -s 0 -d -1 -p ARP -e 28 -c 2 -a 0 -i 0 -k MAC
+ -t 0.206907870 -s 0 -d -1 -p ACK -e 38 -c 2 -a 0 -i 0 -k MAC 
- -t 0.206907870 -s 0 -d -1 -p ACK -e 38 -c 2 -a 0 -i 0 -k MAC
h -t 0.206907870 -s 0 -d -1 -p ACK -e 38 -c 2 -a 0 -i 0 -k MAC
r -t 0.207212370 -s 1 -d -1 -p ACK -e 38 -c 2 -a 0 -i 0 -k MAC
+ -t 0.209001870 -s 0 -d -1 -p RTS -e 44 -c 2 -a 0 -i 0 -k MAC 
- -t 0.209001870 -s 0 -d -1 -p RTS -e 44 -c 2 -a 0 -i 0 -k MAC
h -t 0.209001870 -s 0 -d -1 -p RTS -e 44 -c 2 -a 0 -i 0 -k MAC
r -t 0.209354370 -s 1 -d -1 -p RTS -e 44 -c 2 -a 0 -i 0 -k MAC
+ -t 0.209364370 -s 1 -d -1 -p CTS -e 38 -c 2 -a 0 -i 0 -k MAC 
- -t 0.209364370 -s 1 -d -1 -p CTS -e 38 -c 2 -a 0 -i 0 -k MAC
h -t 0.209364370 -s 1 -d -1 -p CTS -e 38 -c 2 -a 0 -i 0 -k MAC
r -t 0.209668870 -s 0 -d -1 -p CTS -e 38 -c 2 -a 0 -i 0 -k MAC
+ -t 0.209678870 -s 0 -d 1 -p AODV -e 102 -c 2 -a 0 -i 0 -k MAC 
- -t 0.209678870 -s 0 -d 1 -p AODV -e 102 -c 2 -a 0 -i 0 -k MAC
h -t 0.209678870 -s 0 -d 1 -p AODV -e 102 -c 2 -a 0 -i 0 -k MAC
r -t 0.209882926 -s 1 -d 1 -p AODV -e 44 -c 2 -a 0 -i 0 -k MAC
+ -t 0.209892926 -s 1 -d -1 -p ACK -e 38 -c 2 -a 0 -i 0 -k MAC 
- -t 0.209892926 -s 1 -d -1 -p ACK -e 38 -c 2 -a 0 -i 0 -k MAC
h -t 0.209892926 -s 1 -d -1 -p ACK -e 38 -c 2 -a 0 -i 0 -k MAC
+ -t 0.209907926 -s 1 -d 0 -p tcp -e 40 -c 2 -a 0 -i 0 -k RTR 
- -t 0.209907926 -s 1 -d 0 -p tcp -e 40 -c 2 -a 0 -i 0 -k RTR
h -t 0.209907926 -s 1 -d 0 -p tcp -e 40 -c 2 -a 0 -i 0 -k RTR
r -t 0.210197426 -s 0 -d -1 -p ACK -e 38 -c 2 -a 0 -i 0 -k MAC
+ -t 0.210606926 -s 1 -d -1 -p RTS -e 44 -c 2 -a 0 -i 0 -k MAC 
- -t 0.210606926 -s 1 -d -1 -p RTS -e 44 -c 2 -a 0 -i 0 -k MAC
h -t 0.210606926 -s 1 -d -1 -p RTS -e 44 -c 2 -a 0 -i 0 -k MAC
+ -t 0.212006926 -s 1 -d -1 -p RTS -e 44 -c 2 -a 0 -i 0 -k MAC 
- -t 0.212006926 -s 1 -d -1 -p RTS -e 44 -c 2 -a 0 -i 0 -k MAC
h -t 0.212006926 -s 1 -d -1 -p RTS -e 44 -c 2 -a 0 -i 0 -k MAC
r -t 0.212359426 -s 0 -d -1 -p RTS -e 44 -c 2 -a 0 -i 0 -k MAC
+ -t 0.212369426 -s 0 -d -1 -p CTS -e 38 -c 2 -a 0 -i 0 -k MAC 
- -t 0.212369426 -s 0 -d -1 -p CTS -e 38 -c 2 -a 0 -i 0 -k MAC
h -t 0.212369426 -s 0 -d -1 -p CTS -e 38 -c 2 -a 0 -i 0 -k MAC
r -t 0.212673926 -s 1 -d -1 -p CTS -e 38 -c 2 -a 0 -i 0 -k MAC
+ -t 0.212683926 -s 1 -d 0 -p tcp -e 98 -c 2 -a 0 -i 0 -k MAC 
- -t 0.212683926 -s 1 -d 0 -p tcp -e 98 -c 2 -a 0 -i 0 -k MAC
h -t 0.212683926 -s 1 -d 0 -p tcp -e 98 -c 2 -a 0 -i 0 -k MAC
+ -t 0.213794889 -s 1 -d -1 -p RTS -e 44 -c 2 -a 0 -i 0 -k MAC 
- -t 0.213794889 -s 1 -d -1 -p RTS -e 44 -c 2 -a 0 -i 0 -k MAC
h -t 0.213794889 -s 1 -d -1 -p RTS -e 44 -c 2 -a 0 -i 0 -k MAC
r -t 0.214147389 -s 0 -d -1 -p RTS -e 44 -c 2 -a 0 -i 0 -k MAC
+ -t 0.214157389 -s 0 -d -1 -p CTS -e 38 -c 2 -a 0 -i 0 -k MAC 
- -t 0.214157389 -s 0 -d -1 -p CTS -e 38 -c 2 -a 0 -i 0 -k MAC
h -t 0.214157389 -s 0 -d -1 -p CTS -e 38 -c 2 -a 0 -i 0 -k MAC
r -t 0.214461889 -s 1 -d -1 -p CTS -e 38 -c 2 -a 0 -i 0 -k MAC
+ -t 0.214471889 -s 1 -d 0 -p tcp -e 98 -c 2 -a 0 -i 0 -k MAC 
- -t 0.214471889 -s 1 -d 0 -p tcp -e 98 -c 2 -a 0 -i 0 -k MAC
h -t 0.214471889 -s 1 -d 0 -p tcp -e 98 -c 2 -a 0 -i 0 -k MAC
r -t 0.214675352 -s 0 -d 0 -p tcp -e 40 -c 2 -a 0 -i 0 -k MAC
+ -t 0.214685352 -s 0 -d -1 -p ACK -e 38 -c 2 -a 0 -i 0 -k MAC 
- -t 0.214685352 -s 0 -d -1 -p ACK -e 38 -c 2 -a 0 -i 0 -k MAC
h -t 0.214685352 -s 0 -d -1 -p ACK -e 38 -c 2 -a 0 -i 0 -k MAC
r -t 0.214700352 -s 0 -d 0 -p tcp -e 40 -c 2 -a 0 -i 0 -k AGT
+ -t 0.214700352 -s 0 -d -1 -p ack -e 40 -c 2 -a 0 -i 1 -k AGT 
- -t 0.214700352 -s 0 -d -1 -p ack -e 40 -c 2 -a 0 -i 1 -k AGT
h -t 0.214700352 -s 0 -d -1 -p ack -e 40 -c 2 -a 0 -i 1 -k AGT
+ -t 0.214700352 -s 0 -d 1 -p ack -e 40 -c 2 -a 0 -i 1 -k RTR 
- -t 0.214700352 -s 0 -d 1 -p ack -e 40 -c 2 -a 0 -i 1 -k RTR
h -t 0.214700352 -s 0 -d 1 -p ack -e 40 -c 2 -a 0 -i 1 -k RTR
r -t 0.214989852 -s 1 -d -1 -p ACK -e 38 -c 2 -a 0 -i 0 -k MAC
+ -t 0.215579352 -s 0 -d -1 -p RTS -e 44 -c 2 -a 0 -i 0 -k MAC 
- -t 0.215579352 -s 0 -d -1 -p RTS -e 44 -c 2 -a 0 -i 0 -k MAC
h -t 0.215579352 -s 0 -d -1 -p RTS -e 44 -c 2 -a 0 -i 0 -k MAC
r -t 0.215931852 -s 1 -d -1 -p RTS -e 44 -c 2 -a 0 -i 0 -k MAC
+ -t 0.215941852 -s 1 -d -1 -p CTS -e 38 -c 2 -a 0 -i 0 -k MAC 
- -t 0.215941852 -s 1 -d -1 -p CTS -e 38 -c 2 -a 0 -i 0 -k MAC
h -t 0.215941852 -s 1 -d -1 -p CTS -e 38 -c 2 -a 0 -i 0 -k MAC
+ -t 0.217340352 -s 0 -d -1 -p RTS -e 44 -c 2 -a 0 -i 0 -k MAC 
- -t 0.217340352 -s 0 -d -1 -p RTS -e 44 -c 2 -a 0 -i 0 -k MAC
h -t 0.217340352 -s 0 -d -1 -p RTS -e 44 -c 2 -a 0 -i 0 -k MAC
+ -t 0.220080352 -s 0 -d -1 -p RTS -e 44 -c 2 -a 0 -i 0 -k MAC 
- -t 0.220080352 -s 0 -d -1 -p RTS -e 44 -c 2 -a 0 -i 0 -k MAC
h -t 0.220080352 -s 0 -d -1 -p RTS -e 44 -c 2 -a 0 -i 0 -k MAC
r -t 0.220432852 -s 1 -d -1 -p RTS -e 44 -c 2 -a 0 -i 0 -k MAC
+ -t 0.220442852 -s 1 -d -1 -p CTS -e 38 -c 2 -a 0 -i 0 -k MAC 
- -t 0.220442852 -s 1 -d -1 -p CTS -e 38 -c 2 -a 0 -i 0 -k MAC
h -t 0.220442852 -s 1 -d -1 -p CTS -e 38 -c 2 -a 0 -i 0 -k MAC
r -t 0.220747352 -s 0 -d -1 -p CTS -e 38 -c 2 -a 0 -i 0 -k MAC
+ -t 0.220757352 -s 0 -d 1 -p ack -e 98 -c 2 -a 0 -i 1 -k MAC 
- -t 0.220757352 -s 0 -d 1 -p ack -e 98 -c 2 -a 0 -i 1 -k MAC
h -t 0.220757352 -s 0 -d 1 -p ack -e 98 -c 2 -a 0 -i 1 -k MAC
r -t 0.220960815 -s 1 -d 1 -p ack -e 40 -c 2 -a 0 -i 1 -k MAC
+ -t 0.220970815 -s 1 -d -1 -p ACK -e 38 -c 2 -a 0 -i 0 -k MAC 
- -t 0.220970815 -s 1 -d -1 -p ACK -e 38 -c 2 -a 0 -i 0 -k MAC
h -t 0.220970815 -s 1 -d -1 -p ACK -e 38 -c 2 -a 0 -i 0 -k MAC
r -t 0.220985815 -s 1 -d 1 -p ack -e 40 -c 2 -a 0 -i 1 -k AGT
+ -t 0.220985815 -s 1 -d -1 -p tcp -e 1040 -c 2 -a 0 -i 2 -k AGT 
- -t 0.220985815 -s 1 -d -1 -p tcp -e 1040 -c 2 -a 0 -i 2 -k AGT
h -t 0.220985815 -s 1 -d -1 -p tcp -e 1040 -c 2 -a 0 -i 2 -k AGT
+ -t 0.220985815 -s 1 -d -1 -p tcp -e 1040 -c 2 -a 0 -i 3 -k AGT 
- -t 0.220985815 -s 1 -d -1 -p tcp -e 1040 -c 2 -a 0 -i 3 -k AGT
h -t 0.220985815 -s 1 -d -1 -p tcp -e 1040 -c 2 -a 0 -i 3 -k AGT
+ -t 0.220985815 -s 1 -d 0 -p tcp -e 1040 -c 2 -a 0 -i 2 -k RTR 
- -t 0.220985815 -s 1 -d 0 -p tcp -e 1040 -c 2 -a 0 -i 2 -k RTR
h -t 0.220985815 -s 1 -d 0 -p tcp -e 1040 -c 2 -a 0 -i 2 -k RTR
+ -t 0.220985815 -s 1 -d 0 -p tcp -e 1040 -c 2 -a 0 -i 3 -k RTR 
- -t 0.220985815 -s 1 -d 0 -p tcp -e 1040 -c 2 -a 0 -i 3 -k RTR
h -t 0.220985815 -s 1 -d 0 -p tcp -e 1040 -c 2 -a 0 -i 3 -k RTR
r -t 0.221275315 -s 0 -d -1 -p ACK -e 38 -c 2 -a 0 -i 0 -k MAC
+ -t 0.221484815 -s 1 -d -1 -p RTS -e 44 -c 2 -a 0 -i 0 -k MAC 
- -t 0.221484815 -s 1 -d -1 -p RTS -e 44 -c 2 -a 0 -i 0 -k MAC
h -t 0.221484815 -s 1 -d -1 -p RTS -e 44 -c 2 -a 0 -i 0 -k MAC
+ -t 0.222304815 -s 1 -d -1 -p RTS -e 44 -c 2 -a 0 -i 0 -k MAC 
- -t 0.222304815 -s 1 -d -1 -p RTS -e 44 -c 2 -a 0 -i 0 -k MAC
h -t 0.222304815 -s 1 -d -1 -p RTS -e 44 -c 2 -a 0 -i 0 -k MAC
r -t 0.222657315 -s 0 -d -1 -p RTS -e 44 -c 2 -a 0 -i 0 -k MAC
+ -t 0.222667315 -s 0 -d -1 -p CTS -e 38 -c 2 -a 0 -i 0 -k MAC 
- -t 0.222667315 -s 0 -d -1 -p CTS -e 38 -c 2 -a 0 -i 0 -k MAC
h -t 0.222667315 -s 0 -d -1 -p CTS -e 38 -c 2 -a 0 -i 0 -k MAC
r -t 0.222971815 -s 1 -d -1 -p CTS -e 38 -c 2 -a 0 -i 0 -k MAC
+ -t 0.222981815 -s 1 -d 0 -p tcp -e 1098 -c 2 -a 0 -i 2 -k MAC 
- -t 0.222981815 -s 1 -d 0 -p tcp -e 1098 -c 2 -a 0 -i 2 -k MAC
h -t 0.222981815 -s 1 -d 0 -p tcp -e 1098 -c 2 -a 0 -i 2 -k MAC
+ -t 0.223980926 -s 1 -d -1 -p RTS -e 44 -c 2 -a 0 -i 0 -k MAC 
- -t 0.223980926 -s 1 -d -1 -p RTS -e 44 -c 2 -a 0 -i 0 -k MAC
h -t 0.223980926 -s 1 -d -1 -p RTS -e 44 -c 2 -a 0 -i 0 -k MAC
r -t 0.224333426 -s 0 -d -1 -p RTS -e 44 -c 2 -a 0 -i 0 -k MAC
+ -t 0.224343426 -s 0 -d -1 -p CTS -e 38 -c 2 -a 0 -i 0 -k MAC 
- -t 0.224343426 -s 0 -d -1 -p CTS -e 38 -c 2 -a 0 -i 0 -k MAC
h -t 0.224343426 -s 0 -d -1 -p CTS -e 38 -c 2 -a 0 -i 0 -k MAC
r -t 0.224647926 -s 1 -d -1 -p CTS -e 38 -c 2 -a 0 -i 0 -k MAC
+ -t 0.224657926 -s 1 -d 0 -p tcp -e 1098 -c 2 -a 0 -i 2 -k MAC 
- -t 0.224657926 -s 1 -d 0 -p tcp -e 1098 -c 2 -a 0 -i 2 -k MAC
h -t 0.224657926 -s 1 -d 0 -p tcp -e 1098 -c 2 -a 0 -i 2 -k MAC
r -t 0.225009537 -s 0 -d 0 -p tcp -e 1040 -c 2 -a 0 -i 2 -k MAC
+ -t 0.225019537 -s 0 -d -1 -p ACK -e 38 -c 2 -a 0 -i 0 -k MAC 
- -t 0.225019537 -s 0 -d -1 -p ACK -e 38 -c 2 -a 0 -i 0 -k MAC
h -t 0.225019537 -s 0 -d -1 -p ACK -e 38 -c 2 -a 0 -i 0 -k MAC
r -t 0.225034537 -s 0 -d 0 -p tcp -e 1040 -c 2 -a 0 -i 2 -k AGT
+ -t 0.225034537 -s 0 -d -1 -p ack -e 40 -c 2 -a 0 -i 4 -k AGT 
- -t 0.225034537 -s 0 -d -1 -p ack -e 40 -c 2 -a 0 -i 4 -k AGT
h -t 0.225034537 -s 0 -d -1 -p ack -e 40 -c 2 -a 0 -i 4 -k AGT
+ -t 0.225034537 -s 0 -d 1 -p ack -e 40 -c 2 -a 0 -i 4 -k RTR 
- -t 0.225034537 -s 0 -d 1 -p ack -e 40 -c 2 -a 0 -i 4 -k RTR
h -t 0.225034537 -s 0 -d 1 -p ack -e 40 -c 2 -a 0 -i 4 -k RTR
+ -t 0.225573537 -s 0 -d -1 -p RTS -e 44 -c 2 -a 0 -i 0 -k MAC 
- -t 0.225573537 -s 0 -d -1 -p RTS -e 44 -c 2 -a 0 -i 0 -k MAC
h -t 0.225573537 -s 0 -d -1 -p RTS -e 44 -c 2 -a 0 -i 0 -k MAC
r -t 0.225926037 -s 1 -d -1 -p RTS -e 44 -c 2 -a 0 -i 0 -k MAC
+ -t 0.225936037 -s 1 -d -1 -p CTS -e 38 -c 2 -a 0 -i 0 -k MAC 
- -t 0.225936037 -s 1 -d -1 -p CTS -e 38 -c 2 -a 0 -i 0 -k MAC
h -t 0.225936037 -s 1 -d -1 -p CTS -e 38 -c 2 -a 0 -i 0 -k MAC
+ -t 0.227674537 -s 0 -d -1 -p RTS -e 44 -c 2 -a 0 -i 0 -k MAC 
- -t 0.227674537 -s 0 -d -1 -p RTS -e 44 -c 2 -a 0 -i 0 -k MAC
h -t 0.227674537 -s 0 -d -1 -p RTS -e 44 -c 2 -a 0 -i 0 -k MAC
+ -t 0.229574537 -s 0 -d -1 -p RTS -e 44 -c 2 -a 0 -i 0 -k MAC 
- -t 0.229574537 -s 0 -d -1 -p RTS -e 44 -c 2 -a 0 -i 0 -k MAC
h -t 0.229574537 -s 0 -d -1 -p RTS -e 44 -c 2 -a 0 -i 0 -k MAC
+ -t 0.232241037 -s 1 -d -1 -p RTS -e 44 -c 2 -a 0 -i 0 -k MAC 
- -t 0.232241037 -s 1 -d -1 -p RTS -e 44 -c 2 -a 0 -i 0 -k MAC
h -t 0.232241037 -s 1 -d -1 -p RTS -e 44 -c 2 -a 0 -i 0 -k MAC
r -t 0.232593537 -s 0 -d -1 -p RTS -e 44 -c 2 -a 0 -i 0 -k MAC
+ -t 0.232603537 -s 0 -d -1 -p CTS -e 38 -c 2 -a 0 -i 0 -k MAC 
- -t 0.232603537 -s 0 -d -1 -p CTS -e 38 -c 2 -a 0 -i 0 -k MAC
h -t 0.232603537 -s 0 -d -1 -p CTS -e 38 -c 2 -a 0 -i 0 -k MAC
r -t 0.232908037 -s 1 -d -1 -p CTS -e 38 -c 2 -a 0 -i 0 -k MAC
+ -t 0.232918037 -s 1 -d 0 -p tcp -e 1098 -c 2 -a 0 -i 2 -k MAC 
- -t 0.232918037 -s 1 -d 0 -p tcp -e 1098 -c 2 -a 0 -i 2 -k MAC
h -t 0.232918037 -s 1 -d 0 -p tcp -e 1098 -c 2 -a 0 -i 2 -k MAC
+ -t 0.234063648 -s 0 -d -1 -p RTS -e 44 -c 2 -a 0 -i 0 -k MAC 
- -t 0.234063648 -s 0 -d -1 -p RTS -e 44 -c 2 -a 0 -i 0 -k MAC
h -t 0.234063648 -s 0 -d -1 -p RTS -e 44 -c 2 -a 0 -i 0 -k MAC
+ -t 0.236003648 -s 0 -d -1 -p RTS -e 44 -c 2 -a 0 -i 0 -k MAC 
- -t 0.236003648 -s 0 -d -1 -p RTS -e 44 -c 2 -a 0 -i 0 -k MAC
h -t 0.236003648 -s 0 -d -1 -p RTS -e 44 -c 2 -a 0 -i 0 -k MAC
+ -t 0.242490148 -s 1 -d -1 -p RTS -e 44 -c 2 -a 0 -i 0 -k MAC 
- -t 0.242490148 -s 1 -d -1 -p RTS -e 44 -c 2 -a 0 -i 0 -k MAC
h -t 0.242490148 -s 1 -d -1 -p RTS -e 44 -c 2 -a 0 -i 0 -k MAC
r -t 0.242842648 -s 0 -d -1 -p RTS -e 44 -c 2 -a 0 -i 0 -k MAC
+ -t 0.242852648 -s 0 -d -1 -p CTS -e 38 -c 2 -a 0 -i 0 -k MAC 
- -t 0.242852648 -s 0 -d -1 -p CTS -e 38 -c 2 -a 0 -i 0 -k MAC
h -t 0.242852648 -s 0 -d -1 -p CTS -e 38 -c 2 -a 0 -i 0 -k MAC
+ -t 0.253091648 -s 0 -d -1 -p RTS -e 44 -c 2 -a 0 -i 0 -k MAC 
- -t 0.253091648 -s 0 -d -1 -p RTS -e 44 -c 2 -a 0 -i 0 -k MAC
h -t 0.253091648 -s 0 -d -1 -p RTS -e 44 -c 2 -a 0 -i 0 -k MAC
r -t 0.253444148 -s 1 -d -1 -p RTS -e 44 -c 2 -a 0 -i 0 -k MAC
+ -t 0.253454148 -s 1 -d -1 -p CTS -e 38 -c 2 -a 0 -i 0 -k MAC 
- -t 0.253454148 -s 1 -d -1 -p CTS -e 38 -c 2 -a 0 -i 0 -k MAC
h -t 0.253454148 -s 1 -d -1 -p CTS -e 38 -c 2 -a 0 -i 0 -k MAC
r -t 0.253758648 -s 0 -d -1 -p CTS -e 38 -c 2 -a 0 -i 0 -k MAC
+ -t 0.253768648 -s 0 -d 1 -p ack -e 98 -c 2 -a 0 -i 4 -k MAC 
- -t 0.253768648 -s 0 -d 1 -p ack -e 98 -c 2 -a 0 -i 4 -k MAC
h -t 0.253768648 -s 0 -d 1 -p ack -e 98 -c 2 -a 0 -i 4 -k MAC
r -t 0.253972111 -s 1 -d 1 -p ack -e 40 -c 2 -a 0 -i 4 -k MAC
+ -t 0.253982111 -s 1 -d -1 -p ACK -e 38 -c 2 -a 0 -i 0 -k MAC 
- -t 0.253982111 -s 1 -d -1 -p ACK -e 38 -c 2 -a 0 -i 0 -k MAC
h -t 0.253982111 -s 1 -d -1 -p ACK -e 38 -c 2 -a 0 -i 0 -k MAC
r -t 0.253997111 -s 1 -d 1 -p ack -e 40 -c 2 -a 0 -i 4 -k AGT
+ -t 0.253997111 -s 1 -d -1 -p tcp -e 1040 -c 2 -a 0 -i 5 -k AGT 
- -t 0.253997111 -s 1 -d -1 -p tcp -e 1040 -c 2 -a 0 -i 5 -k AGT
h -t 0.253997111 -s 1 -d -1 -p tcp -e 1040 -c 2 -a 0 -i 5 -k AGT
+ -t 0.253997111 -s 1 -d -1 -p tcp -e 1040 -c 2 -a 0 -i 6 -k AGT 
- -t 0.253997111 -s 1 -d -1 -p tcp -e 1040 -c 2 -a 0 -i 6 -k AGT
h -t 0.253997111 -s 1 -d -1 -p tcp -e 1040 -c 2 -a 0 -i 6 -k AGT
+ -t 0.253997111 -s 1 -d 0 -p tcp -e 1040 -c 2 -a 0 -i 5 -k RTR 
- -t 0.253997111 -s 1 -d 0 -p tcp -e 1040 -c 2 -a 0 -i 5 -k RTR
h -t 0.253997111 -s 1 -d 0 -p tcp -e 1040 -c 2 -a 0 -i 5 -k RTR
+ -t 0.253997111 -s 1 -d 0 -p tcp -e 1040 -c 2 -a 0 -i 6 -k RTR 
- -t 0.253997111 -s 1 -d 0 -p tcp -e 1040 -c 2 -a 0 -i 6 -k RTR
h -t 0.253997111 -s 1 -d 0 -p tcp -e 1040 -c 2 -a 0 -i 6 -k RTR
r -t 0.254286611 -s 0 -d -1 -p ACK -e 38 -c 2 -a 0 -i 0 -k MAC
+ -t 0.256516111 -s 1 -d -1 -p RTS -e 44 -c 2 -a 0 -i 0 -k MAC 
- -t 0.256516111 -s 1 -d -1 -p RTS -e 44 -c 2 -a 0 -i 0 -k MAC
h -t 0.256516111 -s 1 -d -1 -p RTS -e 44 -c 2 -a 0 -i 0 -k MAC
r -t 0.256868611 -s 0 -d -1 -p RTS -e 44 -c 2 -a 0 -i 0 -k MAC
+ -t 0.256878611 -s 0 -d -1 -p CTS -e 38 -c 2 -a 0 -i 0 -k MAC 
- -t 0.256878611 -s 0 -d -1 -p CTS -e 38 -c 2 -a 0 -i 0 -k MAC
h -t 0.256878611 -s 0 -d -1 -p CTS -e 38 -c 2 -a 0 -i 0 -k MAC
r -t 0.257183111 -s 1 -d -1 -p CTS -e 38 -c 2 -a 0 -i 0 -k MAC
+ -t 0.257193111 -s 1 -d 0 -p tcp -e 1098 -c 2 -a 0 -i 2 -k MAC 
- -t 0.257193111 -s 1 -d 0 -p tcp -e 1098 -c 2 -a 0 -i 2 -k MAC
h -t 0.257193111 -s 1 -d 0 -p tcp -e 1098 -c 2 -a 0 -i 2 -k MAC
d -t 0.257862222 -s 1 -d 0 -p tcp -e 1040 -c 2 -a 0 -i 2 -k RTR
d -t 0.257862222 -s 1 -d 0 -p tcp -e 1040 -c 2 -a 0 -i 3 -k RTR
d -t 0.257862222 -s 1 -d 0 -p tcp -e 1040 -c 2 -a 0 -i 5 -k RTR
d -t 0.257862222 -s 1 -d 0 -p tcp -e 1040 -c 2 -a 0 -i 6 -k RTR
d -t 0.257862222 -s 1 -d 0 -p tcp -e 1040 -c 2 -a 0 -i 2 -k MAC
+ -t 0.257862222 -s 1 -d 0 -p AODV -e 32 -c 2 -a 0 -i 0 -k RTR 
- -t 0.257862222 -s 1 -d 0 -p AODV -e 32 -c 2 -a 0 -i 0 -k RTR
h -t 0.257862222 -s 1 -d 0 -p AODV -e 32 -c 2 -a 0 -i 0 -k RTR
+ -t 0.257977222 -s 1 -d 0 -p AODV -e 90 -c 2 -a 0 -i 0 -k MAC 
- -t 0.257977222 -s 1 -d 0 -p AODV -e 90 -c 2 -a 0 -i 0 -k MAC
h -t 0.257977222 -s 1 -d 0 -p AODV -e 90 -c 2 -a 0 -i 0 -k MAC
+ -t 0.453997111 -s 1 -d -1 -p tcp -e 1040 -c 2 -a 0 -i 7 -k AGT 
- -t 0.453997111 -s 1 -d -1 -p tcp -e 1040 -c 2 -a 0 -i 7 -k AGT
h -t 0.453997111 -s 1 -d -1 -p tcp -e 1040 -c 2 -a 0 -i 7 -k AGT
+ -t 0.453997111 -s 1 -d -1 -p AODV -e 48 -c 2 -a 0 -i 0 -k RTR 
- -t 0.453997111 -s 1 -d -1 -p AODV -e 48 -c 2 -a 0 -i 0 -k RTR
h -t 0.453997111 -s 1 -d -1 -p AODV -e 48 -c 2 -a 0 -i 0 -k RTR
+ -t 0.454432111 -s 1 -d -1 -p AODV -e 106 -c 2 -a 0 -i 0 -k MAC 
- -t 0.454432111 -s 1 -d -1 -p AODV -e 106 -c 2 -a 0 -i 0 -k MAC
h -t 0.454432111 -s 1 -d -1 -p AODV -e 106 -c 2 -a 0 -i 0 -k MAC
r -t 0.455280611 -s 0 -d -1 -p AODV -e 48 -c 2 -a 0 -i 0 -k MAC
r -t 0.455305611 -s 0 -d -1 -p AODV -e 48 -c 2 -a 0 -i 0 -k RTR
+ -t 0.455305611 -s 0 -d 1 -p AODV -e 44 -c 2 -a 0 -i 0 -k RTR 
- -t 0.455305611 -s 0 -d 1 -p AODV -e 44 -c 2 -a 0 -i 0 -k RTR
h -t 0.455305611 -s 0 -d 1 -p AODV -e 44 -c 2 -a 0 -i 0 -k RTR
+ -t 0.455460611 -s 0 -d -1 -p RTS -e 44 -c 2 -a 0 -i 0 -k MAC 
- -t 0.455460611 -s 0 -d -1 -p RTS -e 44 -c 2 -a 0 -i 0 -k MAC
h -t 0.455460611 -s 0 -d -1 -p RTS -e 44 -c 2 -a 0 -i 0 -k MAC
r -t 0.455813111 -s 1 -d -1 -p RTS -e 44 -c 2 -a 0 -i 0 -k MAC
+ -t 0.455823111 -s 1 -d -1 -p CTS -e 38 -c 2 -a 0 -i 0 -k MAC 
- -t 0.455823111 -s 1 -d -1 -p CTS -e 38 -c 2 -a 0 -i 0 -k MAC
h -t 0.455823111 -s 1 -d -1 -p CTS -e 38 -c 2 -a 0 -i 0 -k MAC
r -t 0.456127611 -s 0 -d -1 -p CTS -e 38 -c 2 -a 0 -i 0 -k MAC
+ -t 0.456137611 -s 0 -d 1 -p AODV -e 102 -c 2 -a 0 -i 0 -k MAC 
- -t 0.456137611 -s 0 -d 1 -p AODV -e 102 -c 2 -a 0 -i 0 -k MAC
h -t 0.456137611 -s 0 -d 1 -p AODV -e 102 -c 2 -a 0 -i 0 -k MAC
r -t 0.456341667 -s 1 -d 1 -p AODV -e 44 -c 2 -a 0 -i 0 -k MAC
+ -t 0.456351667 -s 1 -d -1 -p ACK -e 38 -c 2 -a 0 -i 0 -k MAC 
- -t 0.456351667 -s 1 -d -1 -p ACK -e 38 -c 2 -a 0 -i 0 -k MAC
h -t 0.456351667 -s 1 -d -1 -p ACK -e 38 -c 2 -a 0 -i 0 -k MAC
+ -t 0.456366667 -s 1 -d 0 -p tcp -e 1040 -c 2 -a 0 -i 7 -k RTR 
- -t 0.456366667 -s 1 -d 0 -p tcp -e 1040 -c 2 -a 0 -i 7 -k RTR
h -t 0.456366667 -s 1 -d 0 -p tcp -e 1040 -c 2 -a 0 -i 7 -k RTR
r -t 0.456656167 -s 0 -d -1 -p ACK -e 38 -c 2 -a 0 -i 0 -k MAC
+ -t 0.456725667 -s 1 -d -1 -p RTS -e 44 -c 2 -a 0 -i 0 -k MAC 
- -t 0.456725667 -s 1 -d -1 -p RTS -e 44 -c 2 -a 0 -i 0 -k MAC
h -t 0.456725667 -s 1 -d -1 -p RTS -e 44 -c 2 -a 0 -i 0 -k MAC
r -t 0.457078167 -s 0 -d -1 -p RTS -e 44 -c 2 -a 0 -i 0 -k MAC
+ -t 0.457088167 -s 0 -d -1 -p CTS -e 38 -c 2 -a 0 -i 0 -k MAC 
- -t 0.457088167 -s 0 -d -1 -p CTS -e 38 -c 2 -a 0 -i 0 -k MAC
h -t 0.457088167 -s 0 -d -1 -p CTS -e 38 -c 2 -a 0 -i 0 -k MAC
r -t 0.457392667 -s 1 -d -1 -p CTS -e 38 -c 2 -a 0 -i 0 -k MAC
+ -t 0.457402667 -s 1 -d 0 -p tcp -e 1098 -c 2 -a 0 -i 7 -k MAC 
- -t 0.457402667 -s 1 -d 0 -p tcp -e 1098 -c 2 -a 0 -i 7 -k MAC
h -t 0.457402667 -s 1 -d 0 -p tcp -e 1098 -c 2 -a 0 -i 7 -k MAC
r -t 0.457754278 -s 0 -d 0 -p tcp -e 1040 -c 2 -a 0 -i 7 -k MAC
+ -t 0.457764278 -s 0 -d -1 -p ACK -e 38 -c 2 -a 0 -i 0 -k MAC 
- -t 0.457764278 -s 0 -d -1 -p ACK -e 38 -c 2 -a 0 -i 0 -k MAC
h -t 0.457764278 -s 0 -d -1 -p ACK -e 38 -c 2 -a 0 -i 0 -k MAC
r -t 0.457779278 -s 0 -d 0 -p tcp -e 1040 -c 2 -a 0 -i 7 -k AGT
+ -t 0.457779278 -s 0 -d -1 -p ack -e 40 -c 2 -a 0 -i 8 -k AGT 
- -t 0.457779278 -s 0 -d -1 -p ack -e 40 -c 2 -a 0 -i 8 -k AGT
h -t 0.457779278 -s 0 -d -1 -p ack -e 40 -c 2 -a 0 -i 8 -k AGT
+ -t 0.457779278 -s 0 -d 1 -p ack -e 40 -c 2 -a 0 -i 8 -k RTR 
- -t 0.457779278 -s 0 -d 1 -p ack -e 40 -c 2 -a 0 -i 8 -k RTR
h -t 0.457779278 -s 0 -d 1 -p ack -e 40 -c 2 -a 0 -i 8 -k RTR
r -t 0.458068778 -s 1 -d -1 -p ACK -e 38 -c 2 -a 0 -i 0 -k MAC
+ -t 0.458378278 -s 0 -d -1 -p RTS -e 44 -c 2 -a 0 -i 0 -k MAC 
- -t 0.458378278 -s 0 -d -1 -p RTS -e 44 -c 2 -a 0 -i 0 -k MAC
h -t 0.458378278 -s 0 -d -1 -p RTS -e 44 -c 2 -a 0 -i 0 -k MAC
+ -t 0.460178278 -s 0 -d -1 -p RTS -e 44 -c 2 -a 0 -i 0 -k MAC 
- -t 0.460178278 -s 0 -d -1 -p RTS -e 44 -c 2 -a 0 -i 0 -k MAC
h -t 0.460178278 -s 0 -d -1 -p RTS -e 44 -c 2 -a 0 -i 0 -k MAC
+ -t 0.463318278 -s 0 -d -1 -p RTS -e 44 -c 2 -a 0 -i 0 -k MAC 
- -t 0.463318278 -s 0 -d -1 -p RTS -e 44 -c 2 -a 0 -i 0 -k MAC
h -t 0.463318278 -s 0 -d -1 -p RTS -e 44 -c 2 -a 0 -i 0 -k MAC
+ -t 0.466898278 -s 0 -d -1 -p RTS -e 44 -c 2 -a 0 -i 0 -k MAC 
- -t 0.466898278 -s 0 -d -1 -p RTS -e 44 -c 2 -a 0 -i 0 -k MAC
h -t 0.466898278 -s 0 -d -1 -p RTS -e 44 -c 2 -a 0 -i 0 -k MAC
r -t 0.467250778 -s 1 -d -1 -p RTS -e 44 -c 2 -a 0 -i 0 -k MAC
+ -t 0.467260778 -s 1 -d -1 -p CTS -e 38 -c 2 -a 0 -i 0 -k MAC 
- -t 0.467260778 -s 1 -d -1 -p CTS -e 38 -c 2 -a 0 -i 0 -k MAC
h -t 0.467260778 -s 1 -d -1 -p CTS -e 38 -c 2 -a 0 -i 0 -k MAC
+ -t 0.477619278 -s 0 -d -1 -p RTS -e 44 -c 2 -a 0 -i 0 -k MAC 
- -t 0.477619278 -s 0 -d -1 -p RTS -e 44 -c 2 -a 0 -i 0 -k MAC
h -t 0.477619278 -s 0 -d -1 -p RTS -e 44 -c 2 -a 0 -i 0 -k MAC
+ -t 0.485739278 -s 0 -d -1 -p RTS -e 44 -c 2 -a 0 -i 0 -k MAC 
- -t 0.485739278 -s 0 -d -1 -p RTS -e 44 -c 2 -a 0 -i 0 -k MAC
h -t 0.485739278 -s 0 -d -1 -p RTS -e 44 -c 2 -a 0 -i 0 -k MAC
+ -t 0.505119278 -s 0 -d -1 -p RTS -e 44 -c 2 -a 0 -i 0 -k MAC 
- -t 0.505119278 -s 0 -d -1 -p RTS -e 44 -c 2 -a 0 -i 0 -k MAC
h -t 0.505119278 -s 0 -d -1 -p RTS -e 44 -c 2 -a 0 -i 0 -k MAC
r -t 0.505471778 -s 1 -d -1 -p RTS -e 44 -c 2 -a 0 -i 0 -k MAC
+ -t 0.505481778 -s 1 -d -1 -p CTS -e 38 -c 2 -a 0 -i 0 -k MAC 
- -t 0.505481778 -s 1 -d -1 -p CTS -e 38 -c 2 -a 0 -i 0 -k MAC
h -t 0.505481778 -s 1 -d -1 -p CTS -e 38 -c 2 -a 0 -i 0 -k MAC
d -t 0.505789278 -s 0 -d -1 -p RTS -e 44 -c 2 -a 0 -i 0 -k MAC
d -t 0.505789278 -s 0 -d 1 -p ack -e 40 -c 2 -a 0 -i 8 -k RTR
d -t 0.505789278 -s 0 -d 1 -p ack -e 40 -c 2 -a 0 -i 8 -k MAC
+ -t 0.505789278 -s 0 -d 0 -p AODV -e 32 -c 2 -a 0 -i 0 -k RTR 
- -t 0.505789278 -s 0 -d 0 -p AODV -e 32 -c 2 -a 0 -i 0 -k RTR
h -t 0.505789278 -s 0 -d 0 -p AODV -e 32 -c 2 -a 0 -i 0 -k RTR
+ -t 0.506320278 -s 0 -d 0 -p AODV -e 90 -c 2 -a 0 -i 0 -k MAC 
- -t 0.506320278 -s 0 -d 0 -p AODV -e 90 -c 2 -a 0 -i 0 -k MAC
h -t 0.506320278 -s 0 -d 0 -p AODV -e 90 -c 2 -a 0 -i 0 -k MAC
r -t 0.507040778 -s 1 -d 0 -p AODV -e 32 -c 2 -a 0 -i 0 -k MAC
r -t 0.507065778 -s 1 -d 0 -p AODV -e 32 -c 2 -a 0 -i 0 -k RTR
+ -t 0.853997111 -s 1 -d -1 -p tcp -e 1040 -c 2 -a 0 -i 9 -k AGT 
- -t 0.853997111 -s 1 -d -1 -p tcp -e 1040 -c 2 -a 0 -i 9 -k AGT
h -t 0.853997111 -s 1 -d -1 -p tcp -e 1040 -c 2 -a 0 -i 9 -k AGT
+ -t 0.853997111 -s 1 -d 0 -p tcp -e 1040 -c 2 -a 0 -i 9 -k RTR 
- -t 0.853997111 -s 1 -d 0 -p tcp -e 1040 -c 2 -a 0 -i 9 -k RTR
h -t 0.853997111 -s 1 -d 0 -p tcp -e 1040 -c 2 -a 0 -i 9 -k RTR
+ -t 0.854572111 -s 1 -d -1 -p RTS -e 44 -c 2 -a 0 -i 0 -k MAC 
- -t 0.854572111 -s 1 -d -1 -p RTS -e 44 -c 2 -a 0 -i 0 -k MAC
h -t 0.854572111 -s 1 -d -1 -p RTS -e 44 -c 2 -a 0 -i 0 -k MAC
r -t 0.854924611 -s 0 -d -1 -p RTS -e 44 -c 2 -a 0 -i 0 -k MAC
+ -t 0.854934611 -s 0 -d -1 -p CTS -e 38 -c 2 -a 0 -i 0 -k MAC 
- -t 0.854934611 -s 0 -d -1 -p CTS -e 38 -c 2 -a 0 -i 0 -k MAC
h -t 0.854934611 -s 0 -d -1 -p CTS -e 38 -c 2 -a 0 -i 0 -k MAC
r -t 0.855239111 -s 1 -d -1 -p CTS -e 38 -c 2 -a 0 -i 0 -k MAC
+ -t 0.855249111 -s 1 -d 0 -p tcp -e 1098 -c 2 -a 0 -i 9 -k MAC 
- -t 0.855249111 -s 1 -d 0 -p tcp -e 1098 -c 2 -a 0 -i 9 -k MAC
h -t 0.855249111 -s 1 -d 0 -p tcp -e 1098 -c 2 -a 0 -i 9 -k MAC
r -t 0.855600722 -s 0 -d 0 -p tcp -e 1040 -c 2 -a 0 -i 9 -k MAC
+ -t 0.855610722 -s 0 -d -1 -p ACK -e 38 -c 2 -a 0 -i 0 -k MAC 
- -t 0.855610722 -s 0 -d -1 -p ACK -e 38 -c 2 -a 0 -i 0 -k MAC
h -t 0.855610722 -s 0 -d -1 -p ACK -e 38 -c 2 -a 0 -i 0 -k MAC
r -t 0.855625722 -s 0 -d 0 -p tcp -e 1040 -c 2 -a 0 -i 9 -k AGT
+ -t 0.855625722 -s 0 -d -1 -p ack -e 40 -c 2 -a 0 -i 10 -k AGT 
- -t 0.855625722 -s 0 -d -1 -p ack -e 40 -c 2 -a 0 -i 10 -k AGT
h -t 0.855625722 -s 0 -d -1 -p ack -e 40 -c 2 -a 0 -i 10 -k AGT
+ -t 0.855625722 -s 0 -d -1 -p AODV -e 48 -c 2 -a 0 -i 0 -k RTR 
- -t 0.855625722 -s 0 -d -1 -p AODV -e 48 -c 2 -a 0 -i 0 -k RTR
h -t 0.855625722 -s 0 -d -1 -p AODV -e 48 -c 2 -a 0 -i 0 -k RTR
r -t 0.855915222 -s 1 -d -1 -p ACK -e 38 -c 2 -a 0 -i 0 -k MAC
+ -t 0.856244722 -s 0 -d -1 -p AODV -e 106 -c 2 -a 0 -i 0 -k MAC 
- -t 0.856244722 -s 0 -d -1 -p AODV -e 106 -c 2 -a 0 -i 0 -k MAC
h -t 0.856244722 -s 0 -d -1 -p AODV -e 106 -c 2 -a 0 -i 0 -k MAC
r -t 0.857093222 -s 1 -d -1 -p AODV -e 48 -c 2 -a 0 -i 0 -k MAC
r -t 0.857118222 -s 1 -d -1 -p AODV -e 48 -c 2 -a 0 -i 0 -k RTR
+ -t 0.857118222 -s 1 -d 0 -p AODV -e 44 -c 2 -a 0 -i 0 -k RTR 
- -t 0.857118222 -s 1 -d 0 -p AODV -e 44 -c 2 -a 0 -i 0 -k RTR
h -t 0.857118222 -s 1 -d 0 -p AODV -e 44 -c 2 -a 0 -i 0 -k RTR
+ -t 0.857673222 -s 1 -d -1 -p RTS -e 44 -c 2 -a 0 -i 0 -k MAC 
- -t 0.857673222 -s 1 -d -1 -p RTS -e 44 -c 2 -a 0 -i 0 -k MAC
h -t 0.857673222 -s 1 -d -1 -p RTS -e 44 -c 2 -a 0 -i 0 -k MAC
r -t 0.858025722 -s 0 -d -1 -p RTS -e 44 -c 2 -a 0 -i 0 -k MAC
+ -t 0.858035722 -s 0 -d -1 -p CTS -e 38 -c 2 -a 0 -i 0 -k MAC 
- -t 0.858035722 -s 0 -d -1 -p CTS -e 38 -c 2 -a 0 -i 0 -k MAC
h -t 0.858035722 -s 0 -d -1 -p CTS -e 38 -c 2 -a 0 -i 0 -k MAC
r -t 0.858340222 -s 1 -d -1 -p CTS -e 38 -c 2 -a 0 -i 0 -k MAC
+ -t 0.858350222 -s 1 -d 0 -p AODV -e 102 -c 2 -a 0 -i 0 -k MAC 
- -t 0.858350222 -s 1 -d 0 -p AODV -e 102 -c 2 -a 0 -i 0 -k MAC
h -t 0.858350222 -s 1 -d 0 -p AODV -e 102 -c 2 -a 0 -i 0 -k MAC
r -t 0.858554278 -s 0 -d 0 -p AODV -e 44 -c 2 -a 0 -i 0 -k MAC
+ -t 0.858564278 -s 0 -d -1 -p ACK -e 38 -c 2 -a 0 -i 0 -k MAC 
- -t 0.858564278 -s 0 -d -1 -p ACK -e 38 -c 2 -a 0 -i 0 -k MAC
h -t 0.858564278 -s 0 -d -1 -p ACK -e 38 -c 2 -a 0 -i 0 -k MAC
+ -t 0.858579278 -s 0 -d 1 -p ack -e 40 -c 2 -a 0 -i 10 -k RTR 
- -t 0.858579278 -s 0 -d 1 -p ack -e 40 -c 2 -a 0 -i 10 -k RTR
h -t 0.858579278 -s 0 -d 1 -p ack -e 40 -c 2 -a 0 -i 10 -k RTR
+ -t 0.858918278 -s 0 -d -1 -p RTS -e 44 -c 2 -a 0 -i 0 -k MAC 
- -t 0.858918278 -s 0 -d -1 -p RTS -e 44 -c 2 -a 0 -i 0 -k MAC
h -t 0.858918278 -s 0 -d -1 -p RTS -e 44 -c 2 -a 0 -i 0 -k MAC
+ -t 0.860518278 -s 0 -d -1 -p RTS -e 44 -c 2 -a 0 -i 0 -k MAC 
- -t 0.860518278 -s 0 -d -1 -p RTS -e 44 -c 2 -a 0 -i 0 -k MAC
h -t 0.860518278 -s 0 -d -1 -p RTS -e 44 -c 2 -a 0 -i 0 -k MAC
r -t 0.860870778 -s 1 -d -1 -p RTS -e 44 -c 2 -a 0 -i 0 -k MAC
+ -t 0.860880778 -s 1 -d -1 -p CTS -e 38 -c 2 -a 0 -i 0 -k MAC 
- -t 0.860880778 -s 1 -d -1 -p CTS -e 38 -c 2 -a 0 -i 0 -k MAC
h -t 0.860880778 -s 1 -d -1 -p CTS -e 38 -c 2 -a 0 -i 0 -k MAC
r -t 0.861185278 -s 0 -d -1 -p CTS -e 38 -c 2 -a 0 -i 0 -k MAC
+ -t 0.861195278 -s 0 -d 1 -p ack -e 98 -c 2 -a 0 -i 10 -k MAC 
- -t 0.861195278 -s 0 -d 1 -p ack -e 98 -c 2 -a 0 -i 10 -k MAC
h -t 0.861195278 -s 0 -d 1 -p ack -e 98 -c 2 -a 0 -i 10 -k MAC
r -t 0.861398741 -s 1 -d 1 -p ack -e 40 -c 2 -a 0 -i 10 -k MAC
+ -t 0.861408741 -s 1 -d -1 -p ACK -e 38 -c 2 -a 0 -i 0 -k MAC 
- -t 0.861408741 -s 1 -d -1 -p ACK -e 38 -c 2 -a 0 -i 0 -k MAC
h -t 0.861408741 -s 1 -d -1 -p ACK -e 38 -c 2 -a 0 -i 0 -k MAC
r -t 0.861423741 -s 1 -d 1 -p ack -e 40 -c 2 -a 0 -i 10 -k AGT
+ -t 0.861423741 -s 1 -d -1 -p tcp -e 1040 -c 2 -a 0 -i 11 -k AGT 
- -t 0.861423741 -s 1 -d -1 -p tcp -e 1040 -c 2 -a 0 -i 11 -k AGT
h -t 0.861423741 -s 1 -d -1 -p tcp -e 1040 -c 2 -a 0 -i 11 -k AGT
+ -t 0.861423741 -s 1 -d -1 -p tcp -e 1040 -c 2 -a 0 -i 12 -k AGT 
- -t 0.861423741 -s 1 -d -1 -p tcp -e 1040 -c 2 -a 0 -i 12 -k AGT
h -t 0.861423741 -s 1 -d -1 -p tcp -e 1040 -c 2 -a 0 -i 12 -k AGT
+ -t 0.861423741 -s 1 -d 0 -p tcp -e 1040 -c 2 -a 0 -i 11 -k RTR 
- -t 0.861423741 -s 1 -d 0 -p tcp -e 1040 -c 2 -a 0 -i 11 -k RTR
h -t 0.861423741 -s 1 -d 0 -p tcp -e 1040 -c 2 -a 0 -i 11 -k RTR
+ -t 0.861423741 -s 1 -d 0 -p tcp -e 1040 -c 2 -a 0 -i 12 -k RTR 
- -t 0.861423741 -s 1 -d 0 -p tcp -e 1040 -c 2 -a 0 -i 12 -k RTR
h -t 0.861423741 -s 1 -d 0 -p tcp -e 1040 -c 2 -a 0 -i 12 -k RTR
r -t 0.861713241 -s 0 -d -1 -p ACK -e 38 -c 2 -a 0 -i 0 -k MAC
+ -t 0.861922741 -s 1 -d -1 -p RTS -e 44 -c 2 -a 0 -i 0 -k MAC 
- -t 0.861922741 -s 1 -d -1 -p RTS -e 44 -c 2 -a 0 -i 0 -k MAC
h -t 0.861922741 -s 1 -d -1 -p RTS -e 44 -c 2 -a 0 -i 0 -k MAC
r -t 0.862275241 -s 0 -d -1 -p RTS -e 44 -c 2 -a 0 -i 0 -k MAC